# interfaceEnergyFluxLiquid  FACE_DATA 1399
# x  y  z  interfaceEnergyFluxLiquid
1.2487444e-05 0 6.0004723e-05 0
2.4984321e-06 0 9.0028839e-05 -1.6086049e-08
4.109853e-07 -1.1029075e-24 9.2647365e-05 -5.892187e-08
2.582107e-06 4.749891e-24 9.2581097e-05 -2.1433327e-08
0.00037455737 0 3.4335517e-05 69539.136
0.00037434151 -7.0611746e-23 3.6249848e-05 63049.52
0.00037405614 0 3.8749849e-05 58497.008
0.00037380481 0 4.1249829e-05 56446.151
0.00037344745 0 4.3749799e-05 53118.92
0.00037308123 -7.0618622e-23 4.6249808e-05 51389.229
0.00037276302 -7.0614534e-23 4.8749832e-05 51522.152
0.00037247567 0 5.1249821e-05 52686.492
0.00037203301 0 5.4372077e-05 69621.621
0.00037221961 7.0603545e-23 5.3123646e-05 53382.861
0.00037172343 0 5.6249772e-05 61514.591
0.00037131742 -7.0630876e-23 5.8749736e-05 56740.04
0.00037078869 0 6.1249723e-05 52153.286
0.00037032324 7.0628146e-23 6.3749752e-05 51618.702
0.00036991823 7.0628244e-23 6.6249751e-05 52641.948
0.00036941528 0 6.8884785e-05 65563.634
0.00036965586 0 6.7636468e-05 53591.029
0.00036896177 0 7.1249702e-05 58414.92
0.0003683777 7.0639188e-23 7.3749687e-05 53214.563
0.00036783807 0 7.6249697e-05 52606.27
0.0003670863 0 7.9798454e-05 70515.661
0.00036736787 0 7.855884e-05 53086.377
0.0003667197 0 8.124964e-05 61732.589
0.00036605393 7.0647231e-23 8.3749639e-05 53910.284
0.00036543807 0 8.6249662e-05 52597.565
0.00036459723 0 8.9854431e-05 70711.019
0.00036491345 0 8.8620727e-05 53428.649
0.00036418519 -7.0657162e-23 9.124958e-05 61476.273
0.00036339874 7.0654988e-23 9.3749593e-05 53041.812
0.00036275825 7.0651324e-23 9.6249615e-05 52871.124
0.00036191228 0 9.9272806e-05 66522.847
0.00036229533 0 9.8028275e-05 52893.143
0.0003760092 0 1.2500246e-06 51793.146
0.00037607086 0 3.7500001e-06 54044.808
0.00037599949 0 6.2499625e-06 53065.741
0.00037593132 7.0593149e-23 8.7499583e-06 52422.426
0.00037586231 7.059273e-23 1.1249961e-05 52117.863
0.00037578653 -7.0593529e-23 1.3749956e-05 52021.531
0.0003756999 7.0595562e-23 1.6249944e-05 51997.693
0.00037558507 0 1.874993e-05 51748.568
0.00037544936 0 2.1249924e-05 51484.342
0.00037531387 -7.0599278e-23 2.3749922e-05 51778.944
0.00037516951 7.0600162e-23 2.6249917e-05 52196.553
0.00037500986 0 2.8749908e-05 52934.213
0.00037483151 0 3.1249889e-05 53573.404
0.00037468237 7.7710768e-22 3.3089597e-05 54015.273
0.00041102828 0 8.2509123e-05 112755.32
0.00041333751 0 8.252813e-05 97680.34
0.000415835 0 8.2541504e-05 88326.42
0.00041833249 0 8.2545869e-05 83130.675
0.00042082999 0 8.2543514e-05 79980.21
0.00042332748 0 8.253878e-05 77930.328
0.00042582497 0 8.2535172e-05 76519.616
0.00042832246 0 8.2533863e-05 75491.832
0.00043081996 0 8.2534104e-05 74691.315
0.00043331745 0 8.2534614e-05 74023.196
0.00043581494 0 8.2534668e-05 73434.114
0.00043831244 0 8.2534269e-05 72897.142
0.00044080993 0 8.2533745e-05 72398.999
0.00044330742 0 8.2533329e-05 71931.811
0.00044580492 0 8.2533046e-05 71489.777
0.00044830241 0 8.2532816e-05 71068.704
0.0004507999 0 8.253258e-05 70666.066
0.0004532974 0 8.2532328e-05 70280.602
0.00045579489 0 8.2532081e-05 69911.646
0.00045829238 0 8.2531851e-05 69558.66
0.00046078988 0 8.2531637e-05 69221.093
0.00046328737 0 8.2531434e-05 68898.411
0.00046578487 0 8.2531239e-05 68590.126
0.00046828236 0 8.2531052e-05 68295.788
0.00047077985 0 8.2530874e-05 68014.951
0.00047327735 0 8.2530704e-05 67747.165
0.00047577484 0 8.253054e-05 67491.975
0.00047827234 0 8.2530384e-05 67248.926
0.00048076983 0 8.2530234e-05 67017.573
0.00048326733 0 8.253009e-05 66797.496
0.00048576482 0 8.2529953e-05 66588.374
0.00048826231 0 8.2529822e-05 66390.476
0.00049075981 0 8.25297e-05 66209.869
0.0004932573 0 8.2529585e-05 66132.32
0.0004957548 0 8.2529441e-05 65728.608
0.00049825229 0 8.2529452e-05 78132.771
2.492093e-06 0 0.00011997069 0
2.4955098e-06 4.3340852e-24 0.00012246685 0
2.4708019e-06 0 0.00012750461 0
2.4922186e-06 9.0421995e-24 0.00013245245 0
2.4978983e-06 1.0183532e-23 0.00013004235 0
2.4974641e-06 0 0.00013538703 0
2.4995356e-06 0 0.00014503707 0
4.9950516e-06 0 0.0001474745 0
2.536112e-06 -5.4087565e-23 0.00014996086 0
2.5038752e-06 7.2606354e-22 0.00015033942 0
2.5109595e-06 5.7912009e-23 0.00015252774 0
2.4996346e-06 0 0.00015745867 0
2.5002793e-06 -6.4762421e-24 0.00015995575 0
2.4992648e-06 0 0.00016007996 0
2.4996689e-06 2.498566e-24 0.00016255744 0
2.5002543e-06 0 0.00016745313 0
2.4991339e-06 0 0.00016992273 0
4.9953382e-06 0 0.0001699854 0
2.5006811e-06 1.1807549e-23 0.00017003633 0
2.5001437e-06 -1.8807139e-23 0.00017497725 0
2.4976024e-06 -2.7605591e-24 0.00017989583 0
4.9950446e-06 -1.423815e-23 0.0001775303 0
7.2427544e-05 0 0.000180005 0
7.242761e-05 0 0.00018250283 0
2.4977287e-06 0 0.00018512308 0
4.9950676e-06 0 0.00018501987 0
7.2427614e-05 0 0.00018500111 0
3.9963852e-05 0 0.00019750536 0
0.00036122559 -7.0663032e-23 0.00010124955 53952.085
0.00036046996 -7.0659788e-23 0.00010374956 52113.236
0.00035948933 0 0.00010704206 67417.208
0.00035989404 0 0.00010579679 52446.808
0.00035884786 0 0.00010874951 55638.513
0.00035802387 -7.0666777e-23 0.00011124952 52714.449
0.00035697249 0 0.00011451652 67855.528
0.00035740574 0 0.00011326763 52627.892
0.00035628163 7.0675276e-23 0.00011624947 55495.804
0.00035542011 7.0674011e-23 0.00011874948 53112.146
0.00035436039 0 0.00012173583 66237.249
0.00035482317 0 0.00012048407 52228.749
0.00035355214 -7.0679816e-23 0.00012374945 54581.451
0.00035266031 0 0.00012624943 53405.207
0.0003516503 7.0685649e-23 0.00012874941 60838.637
0.0003521532 7.0587222e-23 0.00012751436 52533.843
0.00035065587 -7.068587e-23 0.00013124941 53760.178
0.00034940616 0 0.00013440491 66747.967
0.00034991603 7.063973e-23 0.00013315123 52347.986
0.00034860133 3.5345576e-23 0.00013624938 55276.232
0.00034711082 0 0.00013990245 67953.094
0.00034763887 0 0.00013864515 53331.008
0.00034647854 0 0.00014124934 58421.776
0.00034541216 0 0.00014374933 53941.394
0.00034417571 0 0.00014644433 62405.357
0.00034474536 0 0.0001451991 51631.087
0.00034313457 0 0.0001487493 54345.317
0.00034175924 0 0.00015165775 64191.159
0.00034235146 -3.5313031e-23 0.00015041069 51855.465
0.00034076859 3.5355438e-23 0.00015374926 54729.327
0.00033929352 0 0.00015675462 64587.688
0.00033990894 0 0.00015550696 51961.711
0.00033831131 0 0.00015874923 54975.901
0.00033677634 0 0.00016174677 64175.513
0.00033741832 3.5319791e-23 0.00016049985 51940.622
0.00033574938 -3.5361731e-23 0.00016374919 54872.29
0.00033420694 0 0.00016664095 63064.031
0.00033487533 0 0.00016539493 51716.354
0.00033308097 0 0.00016874915 54387.705
0.00033158415 0 0.00017145368 60754.301
0.00033228177 -3.5305175e-23 0.00017020606 51231.072
0.00032963188 0 0.00017493274 66626.372
0.00033033809 -3.536437e-23 0.00017368324 53221.98
0.00032887489 3.5370659e-23 0.00017624908 57816.366
0.0003269238 0 0.00017957718 63038.563
0.00032765924 3.5345441e-23 0.00017832752 51720.661
0.0003259363 1.768689e-22 0.00018124905 54990.522
0.00032416757 0 0.00018417241 61672.068
0.00032493215 3.5320963e-23 0.0001829226 51241.537
0.00032214206 0 0.00018744307 67307.435
0.00032291958 3.5374082e-23 0.00018619424 53917.666
0.00032132079 0 0.00018874898 58285.022
0.00031930914 0 0.00019191749 62728.461
0.00032010467 0 0.00019066677 52253.185
0.00031813538 0 0.00019374894 55157.682
0.00031642319 0 0.00019636005 59813.734
0.00031725525 3.5301132e-23 0.00019511015 51384.857
0.00031432585 0 0.00019946925 60451.141
0.00031517148 3.5347487e-23 0.0001982199 52087.843
0.00037705019 0 0.00019000001 194155.72
0.00038087011 0 0.00019000034 162212.21
0.00038336761 0 0.00019000086 159120.31
0.0003858651 0 0.00019000088 158422.08
0.00038836259 0 0.00019000086 158571.3
0.00039086008 0 0.00019000085 158816.82
0.00039335757 0 0.00019000084 159092.22
0.00039585506 0 0.00019000083 159406.51
0.00039835255 0 0.00019000083 159741.75
0.00040085005 0 0.00019000082 160071.71
0.00040334754 0 0.00019000081 160375.77
0.00040584503 0 0.0001900008 160651.44
0.00040834252 0 0.00019000079 160898.48
0.00041084002 0 0.00019000078 161133.51
0.00041333751 0 0.00019000077 161363.83
0.000415835 0 0.00019000076 161594.08
0.00041833249 0 0.00019000076 161812.73
0.00042082999 0 0.00019000074 162014.06
0.00042332748 0 0.00019000074 162194.67
0.00042582497 0 0.00019000073 162372.13
0.00042832246 0 0.00019000072 162559.92
0.00043081996 0 0.00019000071 162772.05
0.00043331745 0 0.00019000071 162993.91
0.00043581494 0 0.0001900007 163205.99
0.00043831244 0 0.00019000069 163390.53
0.00044080993 0 0.00019000068 163535.9
0.00044330742 0 0.00019000068 163627.45
0.00044580492 0 0.00019000066 163690.68
0.00044830241 0 0.00019000066 163770.96
0.0004507999 0 0.00019000065 163906.93
0.0004532974 0 0.00019000064 164074.93
0.00045579489 0 0.00019000063 164232.36
0.00045829238 0 0.00019000063 164392.38
0.00046078988 0 0.00019000061 164605.41
0.00046328737 0 0.00019000061 164857.5
0.00046578487 0 0.00019000059 165133.41
0.00046828236 0 0.00019000059 165416.87
0.00047077985 0 0.00019000058 165665.51
0.00047327735 0 0.00019000057 165835.5
0.00047577484 0 0.00019000056 165977.04
0.00047827234 0 0.00019000056 166308.77
0.00048076983 0 0.00019000054 166908.07
0.00048326733 0 0.00019000054 167430.83
0.00048576482 0 0.00019000052 167650.57
0.00048826231 0 0.00019000052 167743.07
0.00049075981 0 0.00019000051 167914.19
0.0004932573 0 0.0001900005 168334.33
0.0004957548 0 0.00019000049 168720.89
0.00049825229 0 0.00019000054 193169.03
0.0004920029 0 0.00019999424 160974.19
0.00049203554 0 0.0001999743 162235.2
7.9920016e-05 0 0.00021001143 0
9.4905697e-05 0 0.00021000182 0
7.9920008e-05 0 0.00021750525 0
4.9950005e-05 0 0.00022001048 0
4.9950005e-05 0 0.00022750966 0
7.992001e-05 0 0.00023250723 0
4.9950006e-05 0 0.0002350092 0
4.995002e-05 0 0.00024001183 0
4.9950007e-05 0 0.0002449766 0
4.9950006e-05 0 0.00024507027 0
4.9950003e-05 0 0.00024751141 0
7.992001e-05 0 0.00024750628 0
4.9950014e-05 0 0.00025249293 0
7.9920002e-05 0 0.00025247441 0
7.9920004e-05 0 0.00025498942 0
7.9920004e-05 0 0.00025507357 0
7.9920007e-05 0 0.00025751401 0
7.9920004e-05 0 0.00026003276 0
4.9950005e-05 0 0.00026499032 0
7.9920007e-05 0 0.00026497344 0
7.9920003e-05 0 0.00026505957 0
7.9920009e-05 0 0.00026999436 0
0.00024931893 0 0.00027461174 59688.115
0.00024666247 0 0.00027697812 60703.077
0.00024806901 3.5409078e-23 0.00027572646 53004.298
0.00024397918 0 0.00027932535 60798.463
0.00024541215 0 0.0002780745 52591.875
0.00024126973 0 0.00028165502 60098.246
0.00024272871 -3.536151e-23 0.0002804052 51891.418
0.00023853343 0 0.00028396758 58335.874
0.00024001931 3.5331155e-23 0.00028271927 51535.903
0.0002345166 0 0.00028729746 63180.668
0.00023601595 0 0.00028606018 56119.871
0.00023728183 0 0.00028501613 51153.726
0.00023172127 2.5494749e-20 0.00028956059 61008.663
0.00023326781 -3.5444171e-23 0.00028830815 53960.018
0.00022889653 0 0.00029180802 60678.089
0.00023047045 0 0.00029055733 52488.877
0.00022604462 0 0.00029404168 58420.253
0.00022764626 -3.5350954e-23 0.00029279292 51468.309
0.00022190625 0 0.00029721943 61951.47
0.00022352858 0 0.00029598027 55397.384
0.00022479298 0 0.00029501391 51017.181
0.00021898832 0 0.00029940845 60296.885
0.00022065653 3.5433053e-23 0.00029815691 52947.77
0.00031311086 0 0.00020124886 53270.134
0.00031135447 0 0.00020380127 56278.15
0.00031222314 3.5297068e-23 0.00020255149 50336.079
0.00030922212 0 0.00020683932 58608.627
0.00031010433 0 0.00020558858 50821.57
0.00030707927 0 0.00020984199 63335.643
0.00030797339 3.5382452e-23 0.00020859148 52879.81
0.0003060611 0 0.00021124876 55922.277
0.00030399934 0 0.00021406011 59713.619
0.00030492336 3.5319464e-23 0.00021280983 50826.323
0.00030181359 0 0.00021698981 60239.275
0.00030274942 0 0.00021573744 52023.104
0.00029961473 0 0.00021988803 64960.139
0.0003005647 0 0.00021863755 54027.648
0.00029856834 3.5406929e-23 0.00022124866 56762.792
0.00034465899 0 0.00022000202 174427.72
0.00029642325 0 0.00022400634 59709.206
0.00029740272 0 0.00022275627 51097.013
0.00029418091 0 0.0002268423 60470.632
0.00029517353 3.534903e-23 0.00022559085 51781.286
0.0003396656 0 0.00022501116 174297.79
0.00029192387 0 0.00022965073 61107.122
0.00029293149 0 0.0002283976 53146.47
0.00028964796 0 0.00023242462 66638.183
0.00029067444 0 0.00023117434 54978.629
0.00033716472 0 0.00023000448 174017.25
0.00028854821 0 0.0002337485 57070.646
0.00028630173 0 0.00023642363 59163.71
0.0002873592 0 0.00023517404 51107.579
0.0002839784 0 0.00023914392 60236.721
0.000285052 -3.5334748e-23 0.00023789375 51520.877
0.00028163804 0 0.00024183818 60337.282
0.00028272847 3.5356786e-23 0.00024058675 51991.622
0.00027927964 0 0.00024450599 60257.694
0.0002803882 3.537708e-23 0.00024325392 52768.114
0.0002769023 0 0.00024714735 60401.049
0.0002780301 0 0.00024589479 53536.127
0.00027450508 0 0.00024976221 61704.734
0.00027565283 0 0.00024850919 54454.549
0.0002720878 0 0.00025235165 64274.945
0.00027325576 0 0.00025109828 55255.481
0.00026965007 0 0.00025491667 66428.799
0.00027083874 0 0.000253663 55873.11
0.00026719051 0 0.00025745701 67815.516
0.0002684011 -3.5446482e-23 0.00025620346 56253.409
0.00026470991 0 0.00025997478 68254.28
0.00026594178 -3.545295e-23 0.00025872047 56362.071
0.00026220499 0 0.00026246792 67457.201
0.00026346053 3.5456625e-23 0.00026121415 56173.966
0.0003646659 7.059206e-23 0.00026006668 170702.7
0.00025967761 0 0.00026493953 65556.345
0.00026095637 0 0.00026368595 55672.055
0.00025712597 0 0.00026738911 62637.385
0.00025842876 0 0.00026613562 54842.375
0.00025454955 0 0.00026981736 59353.2
0.00025587697 -3.5448944e-23 0.00026856416 53823.643
0.00025194762 0 0.00027222484 58318.026
0.00025330039 0 0.000270972 53144.665
0.00025069824 -3.5426365e-23 0.00027335941 53103.397
0.0003583927 0 0.00029250007 179806.92
0.00036089019 0 0.00029250021 178538.72
0.00036338768 0 0.00029250021 178087.07
0.00036588517 0 0.00029250021 177779.62
0.00036838266 0 0.00029250019 177336.01
0.00037088015 0 0.00029250018 176729.65
0.00037337764 0 0.00029250016 176169.13
0.00049194857 0 0.00020216596 185339.55
0.00049208588 0 0.00020208334 184784.59
0.00048201721 0 0.00020499968 161134.18
0.00048419299 0 0.00020498618 193647.78
0.00048453486 0 0.00020497767 161763.95
0.00049201886 0 0.00020251458 162121.44
0.00048201721 0 0.00020500029 159396.82
0.00048279863 0 0.0002050259 183877.78
0.00048455857 7.0592426e-23 0.00020504053 161859.79
0.00044205052 0 0.00021249215 158599.51
0.00044335487 0 0.00021246669 180593.76
0.00044456777 0 0.0002124858 158118.67
0.0004796269 0 0.00021247899 185300.61
0.00048202347 0 0.00021249483 159600.99
0.00044205233 0 0.00021250586 156632.87
0.00044347276 0 0.0002125118 177923.47
0.00044457399 7.0589093e-23 0.00021252116 156952.15
0.00046203711 0 0.00021499971 157247.97
0.00046421549 0 0.00021495153 182275.59
0.00047200521 0 0.00021497984 158292.45
0.00047204346 0 0.00021498408 158489.53
0.00047949986 0 0.00021252872 159175.33
0.00047976508 7.0622131e-23 0.00021259845 170829.16
0.00048202276 0 0.00021250593 157883.87
0.00046430791 0 0.00021505012 177090.75
0.00047199496 0 0.00021565943 181457.13
0.00047205101 0 0.00021729835 186528.08
0.00047203225 0 0.00021750803 157736.38
0.00044444662 0 0.0002223175 161511.16
0.00044457777 0 0.00022239544 177211.79
0.00044450875 0 0.00022252984 155404.82
0.00044457417 7.0589123e-23 0.00022251873 153868.01
0.00044954974 0 0.00023499971 155395.85
0.00045139357 0 0.00023499847 181534.01
0.00045205564 0 0.00023499108 156223.24
0.00044954171 0 0.00023501091 157845.46
0.00045137255 0 0.00023501604 182484.79
0.00045205491 0 0.00023500971 157915.51
0.00049699865 0 0.00026749847 164894.39
0.00049702281 0 0.00026749924 196082.48
0.00049450488 0 0.00026999958 175415.27
0.00049695838 0 0.00026993555 157273.92
0.00049947541 0 0.00026998383 223679.88
0.00049697085 0 0.00027000484 187461.3
0.00049948434 0 0.00027000252 258361.32
0.00040709231 0 0.00027750047 176725.32
0.00040956469 0 0.00027767925 193264.92
0.00040959069 0 0.00027752039 209410.04
0.00044205716 0 0.00027999971 159127.5
0.00044449858 0 0.00027998732 183650.08
0.00044456726 0 0.00027998806 158590.41
0.0004645362 0 0.00027819984 182300.6
0.0004895097 0 0.0002799997 155934.56
0.00048952368 0 0.00027999965 201203.31
0.00043456452 0 0.0002800036 195439.65
0.00043459063 0 0.00028005071 166339.74
0.00044450731 0 0.00028000936 185470.15
0.00044456501 -7.0587669e-23 0.00028000972 157822.14
0.00045704223 0 0.00028249969 157947.54
0.00046453509 0 0.00028072975 181318.05
0.00048950962 0 0.0002824981 182660.14
0.00048956541 0 0.00028249129 185547.12
0.00043456483 0 0.00028250034 165549.85
0.00045704175 0 0.00028499855 163817.63
0.00045715723 0 0.00028498939 192223.44
0.00046453512 0 0.00028482378 194876.05
0.0004770221 0 0.00028499964 155784.59
0.00047948183 0 0.00028499433 187297.15
0.00047953124 0 0.00028499377 160336.05
0.00049199724 0 0.00028250133 186217.92
0.00045704005 0 0.00028500233 154731.12
0.00045952458 0 0.00028500347 179577.35
0.00046453512 0 0.00028735472 194779.11
0.00047702142 0 0.00028500099 152999.36
0.00047949852 0 0.00028501486 154377.89
0.00047952799 7.0587255e-23 0.00028500974 153000.98
0.0004645351 0 0.00028761326 196102.41
0.0004795336 0 0.00028750036 195422.51
0.00046453506 -7.0586088e-23 0.00029009238 195712.91
0.00037587513 0 0.00029250016 175866.89
0.00037837262 0 0.00029250014 175841.47
0.00038087011 0 0.00029250014 175936.74
0.00038336761 0 0.00029250012 176045.01
0.0003858651 0 0.00029250012 176101.12
0.00038836259 0 0.0002925001 176093.11
0.00039086008 0 0.0002925001 176005.6
0.00039335757 0 0.00029250009 175893.43
0.00039585506 0 0.00029250008 175795.2
0.00039835255 0 0.00029250007 175730.93
0.00040085005 0 0.00029250006 175715.31
0.00040334754 0 0.00029250005 175781.03
0.00040584503 0 0.00029250005 175863.93
0.00040834252 0 0.00029250003 175936.15
0.00041084002 0 0.00029250003 175973.62
0.00041333751 0 0.00029250001 176000.47
0.000415835 0 0.00029250001 176034.82
0.00043208903 -7.0589595e-23 0.00029252154 154262.62
0.00046453504 0 0.00029487328 192380.71
0.00046453504 0 0.00029736094 191296.74
0.00047702992 0 0.00029750076 185366.64
0.00012193531 0 0.00035233813 66644.758
0.00012363045 0 0.0003516453 54233.46
0.0001146533 0 0.00035492082 67970.125
0.00011613823 0 0.00035434345 57140.06
0.00011863563 0 0.00035345905 52103.846
0.00012068574 1.7764074e-23 0.00035278752 51500.051
0.00010713364 0 0.00035741767 68550.894
0.00010864603 0 0.00035687159 57630.52
0.00011114343 0 0.00035602449 52183.468
0.00011340841 -1.7804905e-23 0.0003553383 52008.427
9.9336845e-05 -3.0144999e-22 0.00035982903 68137.512
0.00010115389 0 0.00035920999 55470.971
0.00010365127 0 0.00035843172 51899.447
0.00010589273 1.7812272e-23 0.00035780606 52047.485
9.117343e-05 0 0.0003621351 62088.209
9.36618e-05 0 0.00036135684 52404.49
9.6159156e-05 0 0.00036070032 51792.318
9.8095936e-05 0 0.00036020124 51995.821
8.119913e-05 0 0.00036467784 62516.742
8.3672463e-05 0 0.0003640057 53363.128
8.6169783e-05 0 0.00036337293 51336.843
8.8667113e-05 0 0.00036282 52254.765
8.9918596e-05 1.7648207e-23 0.00036250246 52503.482
0.00011989349 -1.7648505e-23 0.00036250479 135768.83
6.9075751e-05 0 0.00036732238 65458.916
7.1186053e-05 0 0.00036688473 56859.208
7.3683305e-05 0 0.00036632201 52116.098
7.6180574e-05 0 0.00036579714 51383.027
7.8677857e-05 0 0.00036530108 52387.711
7.9945425e-05 -1.4900176e-19 0.00036500651 52505.94
5.4427553e-05 0 0.00036992031 66136.452
5.6203e-05 0 0.00036962003 58565.157
5.8700106e-05 0 0.00036925484 55058.966
6.1197245e-05 0 0.00036879332 51632.757
6.3694412e-05 0 0.00036833288 50579.487
6.6191604e-05 0 0.00036791006 51517.309
6.7826507e-05 8.8744162e-24 0.00036757993 51478.061
3.4010436e-05 0 0.00037240922 62334.459
3.6228103e-05 0 0.00037219433 58018.733
3.8724677e-05 0 0.0003719241 54518.042
4.1221364e-05 0 0.00037169152 53239.755
4.3718143e-05 0 0.00037139883 51412.944
4.6215e-05 0 0.00037104237 49496.509
4.8711923e-05 0 0.00037070779 49369.392
5.1208902e-05 0 0.0003703908 50436.145
5.3181787e-05 0 0.00037010994 50875.145
1.665e-06 0 0.00037341671 48328.872
3.885e-06 0 0.00037382983 44852.094
6.327e-06 0 0.00037380717 46168.386
8.8007143e-06 0 0.00037371715 45721.294
1.1285e-05 0 0.00037363854 45679.139
1.3774091e-05 0 0.00037357192 46993.249
1.6265769e-05 0 0.00037349272 47727.931
1.8759e-05 0 0.00037338891 48287.415
2.1253235e-05 0 0.00037327886 48798.483
2.3748158e-05 0 0.0003731628 49538.936
2.6243571e-05 0 0.00037301126 49927.999
2.8739348e-05 0 0.00037284252 50282.54
3.12354e-05 0 0.00037265116 50488.591
3.2751407e-05 0 0.00037252581 50435.369
2.7477114e-05 4.4123707e-24 0.00038750247 164255.28
0.00012239625 0 0.0003950014 192359
0.00021604008 0 0.00030158594 55993.175
0.00021773827 -3.5366864e-23 0.00030033681 51133.883
0.00021179837 0 0.00030465164 56996.571
0.00021353868 0 0.00030340101 52292.154
0.00021478766 3.5293476e-23 0.00030250194 50105.582
0.0002087776 0 0.00030678688 56966.925
0.00021054915 3.542014e-23 0.00030553613 50389.436
0.00020446036 0 0.00030977233 60297.299
0.00020604627 0 0.00030868453 53579.497
0.00020752631 0 0.00030766317 49741.383
0.00020136106 0 0.00031186919 59074.065
0.00020321252 3.5451719e-23 0.00031061771 51494.791
0.00019695771 0 0.00031477608 61775.821
0.00019855387 -1.4596811e-20 0.00031373229 54417.41
0.00020010987 3.5347662e-23 0.00031270663 50308.631
0.00019377087 0 0.00031683552 59432.386
0.00019571061 3.54561e-23 0.00031558371 51872.185
0.00018926474 0 0.00031966257 61944.092
0.00019106147 0 0.00031854616 54123.262
0.00019251927 0 0.00031763454 50506.695
0.00018471871 0 0.00032244256 65862.491
0.00018606654 0 0.00032162987 57096.35
0.00018801662 0 0.00032043315 51451.654
0.00018135557 0 0.00032443291 60498.163
0.00018347343 3.5514933e-23 0.00032318301 52941.294
0.00017666936 0 0.00032713014 62907.137
0.00017857416 0 0.00032604986 54135.026
0.0001801058 0 0.0003251667 50844.759
0.00017192034 0 0.000329778 64001.992
0.00017357924 0 0.00032887027 55307.839
0.00017542219 0 0.0003278359 51347.255
0.00016709536 0 0.00033237583 65213.191
0.00016858433 0 0.0003315819 56358.007
0.00017067258 0 0.00033045607 51921.924
0.00016217882 0 0.00033492013 66105.6
0.00016358943 0 0.00033418402 57059.755
0.00016584624 -1.7753902e-23 0.00033302529 52351.102
0.00015716195 0 0.00033741267 66111.173
0.00015859453 0 0.00033668652 56874.812
0.0001609282 -1.776558e-23 0.00033554323 52522.877
0.00015203549 0 0.00033985504 65757.247
0.00015359963 0 0.00033909307 56018.21
0.00015590997 0 0.0003380109 52385.027
0.00014678419 0 0.00034224662 65515.446
0.00014860475 0 0.00034140557 54669.181
0.00015078338 -1.7755532e-23 0.00034042986 52086.605
0.00014139725 0 0.00034458722 62734.908
0.00014360987 0 0.00034362734 53460.195
0.00014553303 0 0.00034279961 51544.957
0.00013467695 0 0.00034742408 66274.347
0.00013611757 0 0.0003467813 56480.604
0.000138615 0 0.00034577443 52616.698
0.00014014826 -1.7682791e-23 0.00034512297 50858.385
0.00012898502 0 0.00034965461 61551.802
0.00013112271 0 0.00034878457 52411.548
0.00013342433 0 0.00034792018 51623.595
0.00012612787 0 0.00035073991 51293.263
0.00012773417 0 0.00035013967 50255.647
0.00017983704 0 0.00039750616 169282.42
0.00036463434 0 0.00034499948 142259.66
0.00036707774 0 0.00034499233 171096.63
0.00037462424 7.0586221e-23 0.00034499926 140424.02
0.00036710052 0 0.00034500659 158650.33
0.00037461374 7.0588201e-23 0.00034743697 161026.4
0.00034715446 -3.5293239e-23 0.00036500072 161454.38
0.00039710498 7.0586519e-23 0.00030082455 178148.84
0.00039710271 7.0586109e-23 0.00030375 175119.99
0.0003971027 0 0.00030723741 190720.88
0.00039710257 0 0.0003095586 185678.87
0.00042457089 0 0.00030999582 153857.67
0.00042458644 0 0.00030998853 153573.59
0.00043432672 0 0.00030999797 188977.4
0.00044703818 0 0.00030998269 153215.17
0.0004470739 0 0.00030997791 152791.95
0.00046453265 0 0.0003099967 152630.92
0.00039710271 0 0.00031029713 190345.87
0.000424564 0 0.00031004016 175666
0.00042459128 -7.0588785e-23 0.00031004282 167623.27
0.00043445802 0 0.00031000614 191620.14
0.00043457225 0 0.00031000488 155432.94
0.00044704162 0 0.00031001111 154340.15
0.00044706835 0 0.00031001397 154690.16
0.00046452949 0 0.00031242033 191201.58
0.00046454147 0 0.00031245319 186035.33
0.0004795196 0 0.00031249961 150023.28
0.00048196339 0 0.00031249184 178689.18
0.00039710255 0 0.00031493069 201535.23
0.00048200089 0 0.00031250336 182581.91
0.0003971026 0 0.00031737137 199723.21
0.00049449208 0 0.00031748905 154900.67
0.00049451367 0 0.00031749146 154456.93
0.00039710268 0 0.00031767247 197909.96
0.00049449191 0 0.000317511 154728.9
0.00049451282 -6.2324488e-18 0.00031750765 154137.31
0.00037477172 0 0.00032000086 198252.52
0.00039710261 -7.0586098e-23 0.00032012167 201232.03
0.00039710254 0 0.00032496329 206427.61
0.00040709253 -7.0586084e-23 0.00032251174 207389.56
0.00044955701 -7.058718e-23 0.00032250702 155924.07
0.00039710257 0 0.00032726915 196776.32
0.00039710263 0 0.00032764704 199935.7
0.00049700209 0 0.00032999988 169232.35
0.00049949933 0 0.00032999982 237528.69
0.00039710254 0 0.00033238405 195410.79
0.00047452575 0 0.00033249956 149733.01
0.00039710254 7.0586087e-23 0.00033270293 191050.96
0.0004745246 0 0.00033250023 140952.05
0.00047452578 7.0586194e-23 0.00033250037 143744.6
0.00039710259 0 0.0003373854 185223.88
0.00041208992 0 0.00033500103 151311.25
0.0004420567 0 0.00033999991 174345.04
0.0004445537 0 0.00033999947 152099.19
0.00044704695 0 0.0003399973 148140.69
0.00041208724 0 0.00034249967 139605.93
0.00044455177 0 0.00034249569 137309.97
0.00037462908 0 0.00034499555 139873.41
0.00041208723 0 0.00034499776 166494.68
0.00041208966 0 0.0003449846 164227.72
0.00042956992 0 0.00034250202 174690.82
0.00042957275 7.058653e-23 0.00034252608 167613.38
0.00048451533 7.0586126e-23 0.00034283721 158449.16
0.00037463457 0 0.00034747697 146417.79
0.00038211725 0 0.00034749966 137152.7
0.00038460082 0 0.0003474938 146097.46
0.00038462102 0 0.00034749351 136486.77
0.00039460057 0 0.00034749538 136233.59
0.00039461482 0 0.00034749025 136097.24
0.00046207123 7.0591231e-23 0.00034500057 172095.09
0.00048451816 -7.0586539e-23 0.00034500673 139261.79
0.00038458789 0 0.00034752123 137106.02
0.0003846215 -7.0587272e-23 0.00034750867 136807.43
0.0003945938 0 0.00034751704 137909.85
0.00039461655 0 0.00034751599 137523.07
0.00042457484 0 0.00034999961 147141.59
0.00048201525 0 0.00034750032 166648.95
0.00048452205 7.0587106e-23 0.00034750235 151727.22
0.00041208733 0 0.00035249969 140487.06
0.00042706935 0 0.00035249483 138895.67
0.00048700944 0 0.00035000089 156677.27
0.00040958953 0 0.00035499894 147590.98
0.00041207842 0 0.00035499084 138229.33
0.00041457237 0 0.00035499059 138979.06
0.00042457122 0 0.00035499789 142712.7
0.00041208443 0 0.00035748865 159862.27
0.00045829238 0 0.00035500003 158429.13
0.00046060777 0 0.000355 158936.97
0.00046328737 0 0.000355 158936.38
0.00046578487 0 0.000355 159253.75
0.00046828236 0 0.000355 159550.83
0.00047702333 0 0.0003574996 146749.18
0.00048701014 0 0.00035749927 155964.81
0.00048701462 0 0.00035749912 149236.92
0.00039460518 -7.058611e-23 0.00035753958 181154.35
0.00042457428 0 0.00035750023 157248.27
0.00043147859 0 0.00035750002 166266.44
0.00043397166 0 0.00035750008 166291.65
0.0004368665 0 0.0003575002 177318.79
0.00043714535 0 0.00035750035 181906.27
0.00043959253 -7.0591302e-23 0.00035750081 182650.12
0.00044704289 0 0.00035750049 180871.39
0.00047702224 0 0.00035999974 140371.45
0.00048701216 0 0.00035752274 181596.18
0.00039460502 0 0.00036003515 182177.14
0.00047702494 0 0.00036000418 145342.12
0.0004870118 0 0.00036000012 170049.14
0.00039460507 0 0.00036482779 177689.26
0.00044705506 0 0.00036499653 142211.71
0.00048700939 0 0.00036250152 149575.05
0.00039460511 0 0.00036740093 181927.4
0.0004470533 0 0.00036748823 183455.46
0.00039460508 0 0.00036987938 183607
0.00044705302 0 0.00036751736 187473.06
0.00047951741 0 0.00036999729 144225.32
0.00048199602 0 0.00036999628 170585.59
0.00048950972 0 0.0003699998 143278.38
0.00049198373 0 0.0003699896 151993.41
0.00049201639 0 0.000369991 142715.05
0.0003946051 0 0.00037008942 185141.69
0.00044705257 0 0.00037249591 195628.07
0.00047951901 0 0.00037000678 176171.78
0.00047955858 7.0591757e-23 0.00037000442 175594.52
0.0004919799 0 0.0003700135 148773.23
0.00049201741 -7.05875e-23 0.00037000968 142144.75
0.00039460508 0 0.00037261966 187301.79
0.00047952318 -7.0586547e-23 0.00037250114 155446.18
0.00039460504 0 0.00037744242 195720.29
0.00044705322 -7.0586193e-23 0.0003750048 185296.45
0.00047952216 0 0.00037500117 145260.65
0.00039460502 0 0.00037968412 187132.47
0.0004195854 0 0.00037750146 174920.22
0.00046453132 0 0.00037999621 153281.99
0.00046454259 0 0.00037999256 150921.54
0.00045454471 0 0.0003824997 154969.44
0.00045455399 0 0.00038249605 165195.06
0.00046452699 0 0.00038001448 160100.86
0.00046454577 7.0587715e-23 0.00038001623 153911.53
0.00048201494 0 0.00038249756 141752.62
0.00048202593 0 0.00038249614 147992.92
0.00045454081 0 0.00038250766 161693.24
0.00045456256 7.0588806e-23 0.00038251556 156497.87
0.00047202808 -7.0586165e-23 0.00038250199 166604.68
0.00048201187 0 0.00038250425 148649.76
0.00048203018 7.0587936e-23 0.0003825054 158124.76
0.00048949082 0 0.00038251047 152418.55
0.00048952476 0 0.00038250152 181605.72
0.00043208261 0 0.00038501512 154582.95
0.00049699681 0 0.00038749388 144041.25
0.00049949022 0 0.00038749645 225777.85
0.00041209185 0 0.0003875221 182755.67
0.00042207451 0 0.00038986058 194431.72
0.00042207771 0 0.00038998467 200287.12
0.00044954229 0 0.00038999013 156732.82
0.00047951659 0 0.00038999633 150305.71
0.00047952601 0 0.00038999223 150210.47
0.00049698339 0 0.00038751343 151325.56
0.00049942473 -7.0596718e-23 0.00038750178 257832.06
0.00038711374 0 0.00039240232 195886.74
0.0004795145 0 0.00039000647 153997.27
0.00047952788 -5.1523976e-18 0.00039001387 156616.32
0.00048701234 0 0.00039249964 161137.53
0.00048704011 0 0.0003924645 151953.05
0.00038712324 7.0588036e-23 0.00039253309 170897.79
0.00044954424 0 0.00039498497 167625.2
0.00044955244 0 0.00039499577 159710.59
0.00047201025 0 0.00039499802 189724.46