# interfaceEnergyFluxGas  FACE_DATA 1399
# x  y  z  interfaceEnergyFluxGas
1.2487444e-05 0 6.0004723e-05 1.4992053e-08
2.4984321e-06 0 9.0028839e-05 9.0600556e-09
4.109853e-07 -1.1029075e-24 9.2647365e-05 8.621542e-09
2.582107e-06 4.749891e-24 9.2581097e-05 7.9608651e-09
0.00037455737 0 3.4335517e-05 -1.6449221e-09
0.00037434151 -7.0611746e-23 3.6249848e-05 -1.8938355e-09
0.00037405614 0 3.8749849e-05 -1.6994034e-09
0.00037380481 0 4.1249829e-05 -8.7408495e-10
0.00037344745 0 4.3749799e-05 -5.4821545e-10
0.00037308123 -7.0618622e-23 4.6249808e-05 -6.3894538e-10
0.00037276302 -7.0614534e-23 4.8749832e-05 -7.4839349e-10
0.00037247567 0 5.1249821e-05 -8.8274989e-10
0.00037203301 0 5.4372077e-05 -1.8896351e-09
0.00037221961 7.0603545e-23 5.3123646e-05 -1.0700819e-09
0.00037172343 0 5.6249772e-05 -1.9032196e-09
0.00037131742 -7.0630876e-23 5.8749736e-05 -1.3406911e-09
0.00037078869 0 6.1249723e-05 -7.3362539e-10
0.00037032324 7.0628146e-23 6.3749752e-05 -6.4875099e-10
0.00036991823 7.0628244e-23 6.6249751e-05 6.4382046e-10
0.00036941528 0 6.8884785e-05 -4.0414508e-10
0.00036965586 0 6.7636468e-05 6.9710318e-10
0.00036896177 0 7.1249702e-05 -6.97159e-10
0.0003683777 7.0639188e-23 7.3749687e-05 -7.1849512e-10
0.00036783807 0 7.6249697e-05 -7.3813388e-10
0.0003670863 0 7.9798454e-05 -1.2603837e-09
0.00036736787 0 7.855884e-05 -1.7240676e-09
0.0003667197 0 8.124964e-05 -1.3400953e-09
0.00036605393 7.0647231e-23 8.3749639e-05 -1.852763e-09
0.00036543807 0 8.6249662e-05 -1.5932774e-09
0.00036459723 0 8.9854431e-05 -6.1094832e-10
0.00036491345 0 8.8620727e-05 3.5643689e-10
0.00036418519 -7.0657162e-23 9.124958e-05 -5.5603389e-10
0.00036339874 7.0654988e-23 9.3749593e-05 -7.3134404e-10
0.00036275825 7.0651324e-23 9.6249615e-05 -7.1353188e-10
0.00036191228 0 9.9272806e-05 6.9006796e-10
0.00036229533 0 9.8028275e-05 -4.7762334e-10
0.0003760092 0 1.2500246e-06 -5.4026076e-10
0.00037607086 0 3.7500001e-06 -4.3110008e-10
0.00037599949 0 6.2499625e-06 -2.8089566e-10
0.00037593132 7.0593149e-23 8.7499583e-06 -8.1759099e-10
0.00037586231 7.059273e-23 1.1249961e-05 -5.878728e-10
0.00037578653 -7.0593529e-23 1.3749956e-05 -1.8717509e-10
0.0003756999 7.0595562e-23 1.6249944e-05 -5.0728827e-10
0.00037558507 0 1.874993e-05 -7.1747545e-10
0.00037544936 0 2.1249924e-05 -1.1280943e-09
0.00037531387 -7.0599278e-23 2.3749922e-05 -1.9765437e-10
0.00037516951 7.0600162e-23 2.6249917e-05 -5.6796601e-11
0.00037500986 0 2.8749908e-05 -7.8103876e-10
0.00037483151 0 3.1249889e-05 -1.0445948e-09
0.00037468237 7.7710768e-22 3.3089597e-05 -2.7921199e-09
0.00041102828 0 8.2509123e-05 0
0.00041333751 0 8.252813e-05 0
0.000415835 0 8.2541504e-05 0
0.00041833249 0 8.2545869e-05 0
0.00042082999 0 8.2543514e-05 0
0.00042332748 0 8.253878e-05 0
0.00042582497 0 8.2535172e-05 0
0.00042832246 0 8.2533863e-05 0
0.00043081996 0 8.2534104e-05 0
0.00043331745 0 8.2534614e-05 0
0.00043581494 0 8.2534668e-05 0
0.00043831244 0 8.2534269e-05 0
0.00044080993 0 8.2533745e-05 0
0.00044330742 0 8.2533329e-05 0
0.00044580492 0 8.2533046e-05 0
0.00044830241 0 8.2532816e-05 0
0.0004507999 0 8.253258e-05 0
0.0004532974 0 8.2532328e-05 0
0.00045579489 0 8.2532081e-05 0
0.00045829238 0 8.2531851e-05 0
0.00046078988 0 8.2531637e-05 0
0.00046328737 0 8.2531434e-05 0
0.00046578487 0 8.2531239e-05 0
0.00046828236 0 8.2531052e-05 0
0.00047077985 0 8.2530874e-05 0
0.00047327735 0 8.2530704e-05 0
0.00047577484 0 8.253054e-05 0
0.00047827234 0 8.2530384e-05 0
0.00048076983 0 8.2530234e-05 0
0.00048326733 0 8.253009e-05 0
0.00048576482 0 8.2529953e-05 0
0.00048826231 0 8.2529822e-05 0
0.00049075981 0 8.25297e-05 0
0.0004932573 0 8.2529585e-05 0
0.0004957548 0 8.2529441e-05 0
0.00049825229 0 8.2529452e-05 0
2.492093e-06 0 0.00011997069 1.7653719e-08
2.4955098e-06 4.3340852e-24 0.00012246685 1.7041698e-08
2.4708019e-06 0 0.00012750461 5.2228257e-09
2.4922186e-06 9.0421995e-24 0.00013245245 1.0186867e-08
2.4978983e-06 1.0183532e-23 0.00013004235 6.3726876e-09
2.4974641e-06 0 0.00013538703 8.6244958e-09
2.4995356e-06 0 0.00014503707 1.4214625e-09
4.9950516e-06 0 0.0001474745 1.5428315e-09
2.536112e-06 -5.4087565e-23 0.00014996086 1.199393e-09
2.5038752e-06 7.2606354e-22 0.00015033942 1.5782615e-09
2.5109595e-06 5.7912009e-23 0.00015252774 1.2111993e-09
2.4996346e-06 0 0.00015745867 1.1471274e-09
2.5002793e-06 -6.4762421e-24 0.00015995575 4.2667348e-10
2.4992648e-06 0 0.00016007996 2.3576537e-10
2.4996689e-06 2.498566e-24 0.00016255744 -4.6726291e-10
2.5002543e-06 0 0.00016745313 -1.0444969e-09
2.4991339e-06 0 0.00016992273 -1.6154383e-09
4.9953382e-06 0 0.0001699854 -1.8570815e-09
2.5006811e-06 1.1807549e-23 0.00017003633 -1.9662292e-09
2.5001437e-06 -1.8807139e-23 0.00017497725 -4.5340016e-09
2.4976024e-06 -2.7605591e-24 0.00017989583 -7.5186161e-09
4.9950446e-06 -1.423815e-23 0.0001775303 -6.3633108e-09
7.2427544e-05 0 0.000180005 -1.6077373e-08
7.242761e-05 0 0.00018250283 -1.7094794e-08
2.4977287e-06 0 0.00018512308 -9.5047724e-09
4.9950676e-06 0 0.00018501987 -9.4989326e-09
7.2427614e-05 0 0.00018500111 -1.729115e-08
3.9963852e-05 0 0.00019750536 -9.5909094e-09
0.00036122559 -7.0663032e-23 0.00010124955 9.5054769e-10
0.00036046996 -7.0659788e-23 0.00010374956 1.3451108e-09
0.00035948933 0 0.00010704206 7.0551981e-10
0.00035989404 0 0.00010579679 2.9500446e-09
0.00035884786 0 0.00010874951 9.2422523e-10
0.00035802387 -7.0666777e-23 0.00011124952 1.7950639e-10
0.00035697249 0 0.00011451652 -4.1619842e-10
0.00035740574 0 0.00011326763 -5.2551903e-10
0.00035628163 7.0675276e-23 0.00011624947 -1.024023e-10
0.00035542011 7.0674011e-23 0.00011874948 1.0909342e-09
0.00035436039 0 0.00012173583 4.7195862e-10
0.00035482317 0 0.00012048407 1.087643e-09
0.00035355214 -7.0679816e-23 0.00012374945 4.5753261e-10
0.00035266031 0 0.00012624943 -3.1625583e-10
0.0003516503 7.0685649e-23 0.00012874941 1.2458796e-10
0.0003521532 7.0587222e-23 0.00012751436 -7.6785972e-10
0.00035065587 -7.068587e-23 0.00013124941 3.6712373e-10
0.00034940616 0 0.00013440491 -1.6130895e-10
0.00034991603 7.063973e-23 0.00013315123 4.5645181e-10
0.00034860133 3.5345576e-23 0.00013624938 -5.0962015e-10
0.00034711082 0 0.00013990245 -5.56125e-10
0.00034763887 0 0.00013864515 -1.3666036e-11
0.00034647854 0 0.00014124934 -7.5237726e-10
0.00034541216 0 0.00014374933 -1.291225e-09
0.00034417571 0 0.00014644433 -3.3357198e-10
0.00034474536 0 0.0001451991 -1.5789977e-09
0.00034313457 0 0.0001487493 -3.7564868e-10
0.00034175924 0 0.00015165775 -5.2389837e-10
0.00034235146 -3.5313031e-23 0.00015041069 -1.1937754e-09
0.00034076859 3.5355438e-23 0.00015374926 -1.4754926e-09
0.00033929352 0 0.00015675462 -7.0613443e-10
0.00033990894 0 0.00015550696 -2.5929847e-09
0.00033831131 0 0.00015874923 -6.3287027e-10
0.00033677634 0 0.00016174677 -3.3765695e-10
0.00033741832 3.5319791e-23 0.00016049985 -5.6950603e-10
0.00033574938 -3.5361731e-23 0.00016374919 3.0531443e-10
0.00033420694 0 0.00016664095 6.3629886e-10
0.00033487533 0 0.00016539493 9.1397617e-10
0.00033308097 0 0.00016874915 1.1952309e-09
0.00033158415 0 0.00017145368 1.1081985e-09
0.00033228177 -3.5305175e-23 0.00017020606 1.6403146e-09
0.00032963188 0 0.00017493274 1.9364585e-10
0.00033033809 -3.536437e-23 0.00017368324 1.9779721e-09
0.00032887489 3.5370659e-23 0.00017624908 2.7623945e-10
0.0003269238 0 0.00017957718 -1.8963476e-10
0.00032765924 3.5345441e-23 0.00017832752 2.8019716e-10
0.0003259363 1.768689e-22 0.00018124905 -4.2614183e-10
0.00032416757 0 0.00018417241 -1.0691045e-09
0.00032493215 3.5320963e-23 0.0001829226 -1.5693434e-09
0.00032214206 0 0.00018744307 -7.230807e-10
0.00032291958 3.5374082e-23 0.00018619424 -2.1872971e-09
0.00032132079 0 0.00018874898 -9.0519078e-10
0.00031930914 0 0.00019191749 -3.7392449e-10
0.00032010467 0 0.00019066677 -6.8829514e-10
0.00031813538 0 0.00019374894 -3.4466605e-11
0.00031642319 0 0.00019636005 1.6201392e-10
0.00031725525 3.5301132e-23 0.00019511015 1.7798254e-11
0.00031432585 0 0.00019946925 6.5710428e-11
0.00031517148 3.5347487e-23 0.0001982199 2.8606634e-10
0.00037705019 0 0.00019000001 0
0.00038087011 0 0.00019000034 0
0.00038336761 0 0.00019000086 0
0.0003858651 0 0.00019000088 0
0.00038836259 0 0.00019000086 0
0.00039086008 0 0.00019000085 0
0.00039335757 0 0.00019000084 0
0.00039585506 0 0.00019000083 0
0.00039835255 0 0.00019000083 0
0.00040085005 0 0.00019000082 0
0.00040334754 0 0.00019000081 0
0.00040584503 0 0.0001900008 0
0.00040834252 0 0.00019000079 0
0.00041084002 0 0.00019000078 0
0.00041333751 0 0.00019000077 0
0.000415835 0 0.00019000076 0
0.00041833249 0 0.00019000076 0
0.00042082999 0 0.00019000074 0
0.00042332748 0 0.00019000074 0
0.00042582497 0 0.00019000073 0
0.00042832246 0 0.00019000072 0
0.00043081996 0 0.00019000071 0
0.00043331745 0 0.00019000071 0
0.00043581494 0 0.0001900007 0
0.00043831244 0 0.00019000069 0
0.00044080993 0 0.00019000068 0
0.00044330742 0 0.00019000068 0
0.00044580492 0 0.00019000066 0
0.00044830241 0 0.00019000066 0
0.0004507999 0 0.00019000065 0
0.0004532974 0 0.00019000064 0
0.00045579489 0 0.00019000063 0
0.00045829238 0 0.00019000063 0
0.00046078988 0 0.00019000061 0
0.00046328737 0 0.00019000061 0
0.00046578487 0 0.00019000059 0
0.00046828236 0 0.00019000059 0
0.00047077985 0 0.00019000058 0
0.00047327735 0 0.00019000057 0
0.00047577484 0 0.00019000056 0
0.00047827234 0 0.00019000056 0
0.00048076983 0 0.00019000054 0
0.00048326733 0 0.00019000054 0
0.00048576482 0 0.00019000052 0
0.00048826231 0 0.00019000052 0
0.00049075981 0 0.00019000051 0
0.0004932573 0 0.0001900005 0
0.0004957548 0 0.00019000049 0
0.00049825229 0 0.00019000054 0
0.0004920029 0 0.00019999424 -8.0569123e-10
0.00049203554 0 0.0001999743 -1.5768574e-09
7.9920016e-05 0 0.00021001143 -1.524416e-08
9.4905697e-05 0 0.00021000182 -1.363248e-08
7.9920008e-05 0 0.00021750525 -1.4674254e-08
4.9950005e-05 0 0.00022001048 -9.6701172e-09
4.9950005e-05 0 0.00022750966 -7.8138889e-09
7.992001e-05 0 0.00023250723 -1.1264611e-08
4.9950006e-05 0 0.0002350092 -7.3538582e-09
4.995002e-05 0 0.00024001183 -6.6022544e-09
4.9950007e-05 0 0.0002449766 -5.3751922e-09
4.9950006e-05 0 0.00024507027 -5.1243103e-09
4.9950003e-05 0 0.00024751141 -4.9936483e-09
7.992001e-05 0 0.00024750628 -7.1423251e-09
4.9950014e-05 0 0.00025249293 -4.8958036e-09
7.9920002e-05 0 0.00025247441 -5.0034536e-09
7.9920004e-05 0 0.00025498942 -4.2908973e-09
7.9920004e-05 0 0.00025507357 -3.9337086e-09
7.9920007e-05 0 0.00025751401 -3.4219884e-09
7.9920004e-05 0 0.00026003276 -2.5778676e-09
4.9950005e-05 0 0.00026499032 -3.8584806e-09
7.9920007e-05 0 0.00026497344 -1.4292244e-09
7.9920003e-05 0 0.00026505957 -1.5341485e-09
7.9920009e-05 0 0.00026999436 -4.7758182e-10
0.00024931893 0 0.00027461174 4.9681477e-10
0.00024666247 0 0.00027697812 9.8924948e-10
0.00024806901 3.5409078e-23 0.00027572646 1.0357932e-09
0.00024397918 0 0.00027932535 5.8590897e-10
0.00024541215 0 0.0002780745 1.1527129e-09
0.00024126973 0 0.00028165502 1.4751279e-10
0.00024272871 -3.536151e-23 0.0002804052 6.9492249e-10
0.00023853343 0 0.00028396758 2.4416938e-12
0.00024001931 3.5331155e-23 0.00028271927 1.6227962e-11
0.0002345166 0 0.00028729746 5.5820557e-10
0.00023601595 0 0.00028606018 1.3989597e-09
0.00023728183 0 0.00028501613 1.59389e-09
0.00023172127 2.5494749e-20 0.00028956059 -8.4634404e-11
0.00023326781 -3.5444171e-23 0.00028830815 3.6793658e-10
0.00022889653 0 0.00029180802 -4.1710995e-11
0.00023047045 0 0.00029055733 -4.8377975e-10
0.00022604462 0 0.00029404168 5.0299789e-10
0.00022764626 -3.5350954e-23 0.00029279292 6.2836482e-10
0.00022190625 0 0.00029721943 -2.6602638e-11
0.00022352858 0 0.00029598027 2.2466956e-10
0.00022479298 0 0.00029501391 8.0134366e-10
0.00021898832 0 0.00029940845 -1.702202e-11
0.00022065653 3.5433053e-23 0.00029815691 4.6570319e-10
0.00031311086 0 0.00020124886 -2.8899988e-10
0.00031135447 0 0.00020380127 -1.5791588e-09
0.00031222314 3.5297068e-23 0.00020255149 -1.5829924e-09
0.00030922212 0 0.00020683932 -1.0972298e-09
0.00031010433 0 0.00020558858 -1.9978908e-09
0.00030707927 0 0.00020984199 -7.2981269e-10
0.00030797339 3.5382452e-23 0.00020859148 -1.2594374e-09
0.0003060611 0 0.00021124876 -7.971116e-10
0.00030399934 0 0.00021406011 -5.7361024e-10
0.00030492336 3.5319464e-23 0.00021280983 -1.4008815e-09
0.00030181359 0 0.00021698981 -7.0006233e-10
0.00030274942 0 0.00021573744 -8.1793756e-10
0.00029961473 0 0.00021988803 -8.3303175e-10
0.0003005647 0 0.00021863755 -9.6086792e-10
0.00029856834 3.5406929e-23 0.00022124866 -7.7435627e-10
0.00034465899 0 0.00022000202 0
0.00029642325 0 0.00022400634 -1.1487078e-10
0.00029740272 0 0.00022275627 -7.0429503e-10
0.00029418091 0 0.0002268423 1.3128093e-10
0.00029517353 3.534903e-23 0.00022559085 -1.2872412e-11
0.0003396656 0 0.00022501116 0
0.00029192387 0 0.00022965073 -1.8691186e-10
0.00029293149 0 0.0002283976 5.9572439e-11
0.00028964796 0 0.00023242462 -8.5430676e-10
0.00029067444 0 0.00023117434 -6.4192554e-10
0.00033716472 0 0.00023000448 0
0.00028854821 0 0.0002337485 -7.835548e-10
0.00028630173 0 0.00023642363 -1.2172934e-09
0.0002873592 0 0.00023517404 -7.1651134e-10
0.0002839784 0 0.00023914392 -1.3595972e-09
0.000285052 -3.5334748e-23 0.00023789375 -2.0285892e-09
0.00028163804 0 0.00024183818 -1.2790081e-09
0.00028272847 3.5356786e-23 0.00024058675 -2.0126998e-09
0.00027927964 0 0.00024450599 -1.1880243e-09
0.0002803882 3.537708e-23 0.00024325392 -1.7773913e-09
0.0002769023 0 0.00024714735 -8.9589635e-10
0.0002780301 0 0.00024589479 -1.1914895e-09
0.00027450508 0 0.00024976221 -6.1969859e-10
0.00027565283 0 0.00024850919 8.7043276e-11
0.0002720878 0 0.00025235165 -5.9009544e-10
0.00027325576 0 0.00025109828 -4.9568186e-10
0.00026965007 0 0.00025491667 -5.9443426e-10
0.00027083874 0 0.000253663 1.111886e-10
0.00026719051 0 0.00025745701 -9.4290617e-10
0.0002684011 -3.5446482e-23 0.00025620346 -7.1258229e-10
0.00026470991 0 0.00025997478 -1.2807148e-09
0.00026594178 -3.545295e-23 0.00025872047 -1.3707105e-09
0.00026220499 0 0.00026246792 -1.4147977e-09
0.00026346053 3.5456625e-23 0.00026121415 -1.89905e-09
0.0003646659 7.059206e-23 0.00026006668 0
0.00025967761 0 0.00026493953 -9.281933e-10
0.00026095637 0 0.00026368595 -1.5077742e-09
0.00025712597 0 0.00026738911 -1.5545713e-10
0.00025842876 0 0.00026613562 -6.4098228e-10
0.00025454955 0 0.00026981736 -8.9988227e-11
0.00025587697 -3.5448944e-23 0.00026856416 1.0178687e-09
0.00025194762 0 0.00027222484 -2.5923422e-10
0.00025330039 0 0.000270972 -6.2348482e-10
0.00025069824 -3.5426365e-23 0.00027335941 3.1468182e-10
0.0003583927 0 0.00029250007 0
0.00036089019 0 0.00029250021 0
0.00036338768 0 0.00029250021 0
0.00036588517 0 0.00029250021 0
0.00036838266 0 0.00029250019 0
0.00037088015 0 0.00029250018 0
0.00037337764 0 0.00029250016 0
0.00049194857 0 0.00020216596 -5.3705209e-10
0.00049208588 0 0.00020208334 -1.1610409e-09
0.00048201721 0 0.00020499968 0
0.00048419299 0 0.00020498618 0
0.00048453486 0 0.00020497767 0
0.00049201886 0 0.00020251458 -1.6053333e-09
0.00048201721 0 0.00020500029 0
0.00048279863 0 0.0002050259 0
0.00048455857 7.0592426e-23 0.00020504053 0
0.00044205052 0 0.00021249215 8.0057295e-10
0.00044335487 0 0.00021246669 1.01702e-09
0.00044456777 0 0.0002124858 7.9724945e-10
0.0004796269 0 0.00021247899 0
0.00048202347 0 0.00021249483 0
0.00044205233 0 0.00021250586 8.0198342e-10
0.00044347276 0 0.0002125118 1.0351066e-09
0.00044457399 7.0589093e-23 0.00021252116 7.9317732e-10
0.00046203711 0 0.00021499971 -8.1141176e-10
0.00046421549 0 0.00021495153 -5.7227874e-10
0.00047200521 0 0.00021497984 0
0.00047204346 0 0.00021498408 -7.9450206e-10
0.00047949986 0 0.00021252872 0
0.00047976508 7.0622131e-23 0.00021259845 0
0.00048202276 0 0.00021250593 0
0.00046430791 0 0.00021505012 -3.7540113e-10
0.00047199496 0 0.00021565943 0
0.00047205101 0 0.00021729835 -5.3824718e-10
0.00047203225 0 0.00021750803 -8.231147e-10
0.00044444662 0 0.0002223175 0
0.00044457777 0 0.00022239544 -2.8618456e-10
0.00044450875 0 0.00022252984 0
0.00044457417 7.0589123e-23 0.00022251873 -7.9268658e-10
0.00044954974 0 0.00023499971 8.049698e-10
0.00045139357 0 0.00023499847 9.7289019e-10
0.00045205564 0 0.00023499108 8.0009492e-10
0.00044954171 0 0.00023501091 0
0.00045137255 0 0.00023501604 0
0.00045205491 0 0.00023500971 0
0.00049699865 0 0.00026749847 -6.948603e-11
0.00049702281 0 0.00026749924 -5.7774446e-10
0.00049450488 0 0.00026999958 -1.4456405e-10
0.00049695838 0 0.00026993555 0
0.00049947541 0 0.00026998383 0
0.00049697085 0 0.00027000484 -3.3146575e-10
0.00049948434 0 0.00027000252 0
0.00040709231 0 0.00027750047 8.4599469e-10
0.00040956469 0 0.00027767925 0
0.00040959069 0 0.00027752039 5.9953658e-10
0.00044205716 0 0.00027999971 0
0.00044449858 0 0.00027998732 0
0.00044456726 0 0.00027998806 0
0.0004645362 0 0.00027819984 0
0.0004895097 0 0.0002799997 0
0.00048952368 0 0.00027999965 0
0.00043456452 0 0.0002800036 0
0.00043459063 0 0.00028005071 0
0.00044450731 0 0.00028000936 0
0.00044456501 -7.0587669e-23 0.00028000972 0
0.00045704223 0 0.00028249969 0
0.00046453509 0 0.00028072975 0
0.00048950962 0 0.0002824981 0
0.00048956541 0 0.00028249129 0
0.00043456483 0 0.00028250034 0
0.00045704175 0 0.00028499855 0
0.00045715723 0 0.00028498939 0
0.00046453512 0 0.00028482378 0
0.0004770221 0 0.00028499964 0
0.00047948183 0 0.00028499433 0
0.00047953124 0 0.00028499377 0
0.00049199724 0 0.00028250133 0
0.00045704005 0 0.00028500233 0
0.00045952458 0 0.00028500347 0
0.00046453512 0 0.00028735472 0
0.00047702142 0 0.00028500099 0
0.00047949852 0 0.00028501486 0
0.00047952799 7.0587255e-23 0.00028500974 0
0.0004645351 0 0.00028761326 0
0.0004795336 0 0.00028750036 0
0.00046453506 -7.0586088e-23 0.00029009238 0
0.00037587513 0 0.00029250016 0
0.00037837262 0 0.00029250014 0
0.00038087011 0 0.00029250014 0
0.00038336761 0 0.00029250012 0
0.0003858651 0 0.00029250012 0
0.00038836259 0 0.0002925001 0
0.00039086008 0 0.0002925001 0
0.00039335757 0 0.00029250009 0
0.00039585506 0 0.00029250008 0
0.00039835255 0 0.00029250007 0
0.00040085005 0 0.00029250006 0
0.00040334754 0 0.00029250005 0
0.00040584503 0 0.00029250005 0
0.00040834252 0 0.00029250003 0
0.00041084002 0 0.00029250003 0
0.00041333751 0 0.00029250001 0
0.000415835 0 0.00029250001 0
0.00043208903 -7.0589595e-23 0.00029252154 0
0.00046453504 0 0.00029487328 0
0.00046453504 0 0.00029736094 0
0.00047702992 0 0.00029750076 0
0.00012193531 0 0.00035233813 8.0627083e-10
0.00012363045 0 0.0003516453 6.5920164e-10
0.0001146533 0 0.00035492082 5.6973016e-10
0.00011613823 0 0.00035434345 8.1252558e-10
0.00011863563 0 0.00035345905 8.1891076e-10
0.00012068574 1.7764074e-23 0.00035278752 8.5905314e-10
0.00010713364 0 0.00035741767 4.0748991e-10
0.00010864603 0 0.00035687159 4.7287365e-10
0.00011114343 0 0.00035602449 2.1221766e-10
0.00011340841 -1.7804905e-23 0.0003553383 0
9.9336845e-05 -3.0144999e-22 0.00035982903 3.6909155e-10
0.00010115389 0 0.00035920999 2.2211951e-10
0.00010365127 0 0.00035843172 4.2582635e-10
0.00010589273 1.7812272e-23 0.00035780606 1.4715931e-09
9.117343e-05 0 0.0003621351 4.8336011e-10
9.36618e-05 0 0.00036135684 4.5263075e-10
9.6159156e-05 0 0.00036070032 9.4927243e-10
9.8095936e-05 0 0.00036020124 7.7684155e-10
8.119913e-05 0 0.00036467784 5.7247576e-10
8.3672463e-05 0 0.0003640057 6.4986527e-10
8.6169783e-05 0 0.00036337293 1.5884753e-10
8.8667113e-05 0 0.00036282 -6.8564886e-10
8.9918596e-05 1.7648207e-23 0.00036250246 -9.7893417e-10
0.00011989349 -1.7648505e-23 0.00036250479 0
6.9075751e-05 0 0.00036732238 -4.0082143e-11
7.1186053e-05 0 0.00036688473 -2.2142452e-10
7.3683305e-05 0 0.00036632201 -1.8187105e-10
7.6180574e-05 0 0.00036579714 0
7.8677857e-05 0 0.00036530108 1.3547009e-11
7.9945425e-05 -1.4900176e-19 0.00036500651 1.7008044e-10
5.4427553e-05 0 0.00036992031 -7.2534508e-10
5.6203e-05 0 0.00036962003 -6.7956269e-10
5.8700106e-05 0 0.00036925484 -6.7046247e-10
6.1197245e-05 0 0.00036879332 -3.462997e-10
6.3694412e-05 0 0.00036833288 4.6445191e-11
6.6191604e-05 0 0.00036791006 6.2706137e-10
6.7826507e-05 8.8744162e-24 0.00036757993 5.3139844e-10
3.4010436e-05 0 0.00037240922 -2.4306978e-09
3.6228103e-05 0 0.00037219433 -2.386642e-09
3.8724677e-05 0 0.0003719241 -2.1185695e-09
4.1221364e-05 0 0.00037169152 -1.3841458e-09
4.3718143e-05 0 0.00037139883 -9.9275756e-10
4.6215e-05 0 0.00037104237 -7.7239535e-10
4.8711923e-05 0 0.00037070779 -7.1419507e-10
5.1208902e-05 0 0.0003703908 -8.9253219e-10
5.3181787e-05 0 0.00037010994 -1.7790736e-09
1.665e-06 0 0.00037341671 -1.7417666e-09
3.885e-06 0 0.00037382983 -1.2470768e-09
6.327e-06 0 0.00037380717 -1.3003646e-09
8.8007143e-06 0 0.00037371715 -2.0893978e-09
1.1285e-05 0 0.00037363854 -2.465376e-09
1.3774091e-05 0 0.00037357192 -2.6940628e-09
1.6265769e-05 0 0.00037349272 -1.834756e-09
1.8759e-05 0 0.00037338891 -2.9111066e-09
2.1253235e-05 0 0.00037327886 -2.829143e-09
2.3748158e-05 0 0.0003731628 -2.4077828e-09
2.6243571e-05 0 0.00037301126 -3.0989557e-09
2.8739348e-05 0 0.00037284252 -3.4938251e-09
3.12354e-05 0 0.00037265116 -3.1808077e-09
3.2751407e-05 0 0.00037252581 -3.9134094e-09
2.7477114e-05 4.4123707e-24 0.00038750247 0
0.00012239625 0 0.0003950014 0
0.00021604008 0 0.00030158594 -2.2993517e-10
0.00021773827 -3.5366864e-23 0.00030033681 1.5151805e-10
0.00021179837 0 0.00030465164 -4.7700874e-10
0.00021353868 0 0.00030340101 -3.3167633e-10
0.00021478766 3.5293476e-23 0.00030250194 0
0.0002087776 0 0.00030678688 -8.1921846e-10
0.00021054915 3.542014e-23 0.00030553613 -1.0994415e-09
0.00020446036 0 0.00030977233 -5.1890364e-10
0.00020604627 0 0.00030868453 -5.4168695e-10
0.00020752631 0 0.00030766317 -6.9934187e-10
0.00020136106 0 0.00031186919 -7.2941386e-10
0.00020321252 3.5451719e-23 0.00031061771 -6.7850867e-10
0.00019695771 0 0.00031477608 -1.0551938e-09
0.00019855387 -1.4596811e-20 0.00031373229 -1.2687133e-09
0.00020010987 3.5347662e-23 0.00031270663 -1.4992716e-09
0.00019377087 0 0.00031683552 -1.3858499e-09
0.00019571061 3.54561e-23 0.00031558371 -1.0776989e-09
0.00018926474 0 0.00031966257 -1.8215734e-09
0.00019106147 0 0.00031854616 -2.262581e-09
0.00019251927 0 0.00031763454 -2.2679868e-09
0.00018471871 0 0.00032244256 -2.0582626e-09
0.00018606654 0 0.00032162987 -2.0137092e-09
0.00018801662 0 0.00032043315 -2.2927747e-09
0.00018135557 0 0.00032443291 -2.3984867e-09
0.00018347343 3.5514933e-23 0.00032318301 -3.2077746e-09
0.00017666936 0 0.00032713014 -1.2580891e-09
0.00017857416 0 0.00032604986 -1.9827228e-09
0.0001801058 0 0.0003251667 -2.4296186e-09
0.00017192034 0 0.000329778 -1.4668218e-09
0.00017357924 0 0.00032887027 -1.8046303e-09
0.00017542219 0 0.0003278359 -2.4059026e-09
0.00016709536 0 0.00033237583 -1.6545652e-09
0.00016858433 0 0.0003315819 -1.7739521e-09
0.00017067258 0 0.00033045607 -2.1577264e-09
0.00016217882 0 0.00033492013 -1.0800991e-09
0.00016358943 0 0.00033418402 -1.9379556e-09
0.00016584624 -1.7753902e-23 0.00033302529 -3.162463e-09
0.00015716195 0 0.00033741267 1.1701323e-10
0.00015859453 0 0.00033668652 -1.27139e-11
0.0001609282 -1.776558e-23 0.00033554323 -4.0046072e-10
0.00015203549 0 0.00033985504 -4.5930462e-10
0.00015359963 0 0.00033909307 -2.1140526e-10
0.00015590997 0 0.0003380109 0
0.00014678419 0 0.00034224662 -6.8539698e-10
0.00014860475 0 0.00034140557 -7.5869501e-10
0.00015078338 -1.7755532e-23 0.00034042986 -3.4739494e-10
0.00014139725 0 0.00034458722 -4.9455576e-10
0.00014360987 0 0.00034362734 -1.1828354e-09
0.00014553303 0 0.00034279961 -2.0741199e-09
0.00013467695 0 0.00034742408 -4.4263068e-11
0.00013611757 0 0.0003467813 -2.26286e-11
0.000138615 0 0.00034577443 -4.0559754e-10
0.00014014826 -1.7682791e-23 0.00034512297 -8.4708329e-10
0.00012898502 0 0.00034965461 -3.9911024e-10
0.00013112271 0 0.00034878457 -6.992309e-10
0.00013342433 0 0.00034792018 -2.8378108e-10
0.00012612787 0 0.00035073991 2.3523988e-10
0.00012773417 0 0.00035013967 2.3607187e-10
0.00017983704 0 0.00039750616 0
0.00036463434 0 0.00034499948 0
0.00036707774 0 0.00034499233 0
0.00037462424 7.0586221e-23 0.00034499926 0
0.00036710052 0 0.00034500659 0
0.00037461374 7.0588201e-23 0.00034743697 0
0.00034715446 -3.5293239e-23 0.00036500072 0
0.00039710498 7.0586519e-23 0.00030082455 0
0.00039710271 7.0586109e-23 0.00030375 0
0.0003971027 0 0.00030723741 0
0.00039710257 0 0.0003095586 0
0.00042457089 0 0.00030999582 0
0.00042458644 0 0.00030998853 0
0.00043432672 0 0.00030999797 0
0.00044703818 0 0.00030998269 0
0.0004470739 0 0.00030997791 0
0.00046453265 0 0.0003099967 0
0.00039710271 0 0.00031029713 0
0.000424564 0 0.00031004016 0
0.00042459128 -7.0588785e-23 0.00031004282 0
0.00043445802 0 0.00031000614 0
0.00043457225 0 0.00031000488 0
0.00044704162 0 0.00031001111 0
0.00044706835 0 0.00031001397 0
0.00046452949 0 0.00031242033 0
0.00046454147 0 0.00031245319 0
0.0004795196 0 0.00031249961 0
0.00048196339 0 0.00031249184 0
0.00039710255 0 0.00031493069 0
0.00048200089 0 0.00031250336 0
0.0003971026 0 0.00031737137 0
0.00049449208 0 0.00031748905 0
0.00049451367 0 0.00031749146 0
0.00039710268 0 0.00031767247 0
0.00049449191 0 0.000317511 0
0.00049451282 -6.2324488e-18 0.00031750765 0
0.00037477172 0 0.00032000086 0
0.00039710261 -7.0586098e-23 0.00032012167 0
0.00039710254 0 0.00032496329 0
0.00040709253 -7.0586084e-23 0.00032251174 0
0.00044955701 -7.058718e-23 0.00032250702 0
0.00039710257 0 0.00032726915 0
0.00039710263 0 0.00032764704 0
0.00049700209 0 0.00032999988 0
0.00049949933 0 0.00032999982 0
0.00039710254 0 0.00033238405 0
0.00047452575 0 0.00033249956 0
0.00039710254 7.0586087e-23 0.00033270293 0
0.0004745246 0 0.00033250023 0
0.00047452578 7.0586194e-23 0.00033250037 0
0.00039710259 0 0.0003373854 0
0.00041208992 0 0.00033500103 0
0.0004420567 0 0.00033999991 0
0.0004445537 0 0.00033999947 0
0.00044704695 0 0.0003399973 0
0.00041208724 0 0.00034249967 0
0.00044455177 0 0.00034249569 0
0.00037462908 0 0.00034499555 0
0.00041208723 0 0.00034499776 0
0.00041208966 0 0.0003449846 0
0.00042956992 0 0.00034250202 0
0.00042957275 7.058653e-23 0.00034252608 0
0.00048451533 7.0586126e-23 0.00034283721 0
0.00037463457 0 0.00034747697 0
0.00038211725 0 0.00034749966 0
0.00038460082 0 0.0003474938 0
0.00038462102 0 0.00034749351 0
0.00039460057 0 0.00034749538 0
0.00039461482 0 0.00034749025 0
0.00046207123 7.0591231e-23 0.00034500057 0
0.00048451816 -7.0586539e-23 0.00034500673 0
0.00038458789 0 0.00034752123 0
0.0003846215 -7.0587272e-23 0.00034750867 0
0.0003945938 0 0.00034751704 0
0.00039461655 0 0.00034751599 0
0.00042457484 0 0.00034999961 0
0.00048201525 0 0.00034750032 0
0.00048452205 7.0587106e-23 0.00034750235 0
0.00041208733 0 0.00035249969 0
0.00042706935 0 0.00035249483 0
0.00048700944 0 0.00035000089 0
0.00040958953 0 0.00035499894 0
0.00041207842 0 0.00035499084 0
0.00041457237 0 0.00035499059 0
0.00042457122 0 0.00035499789 0
0.00041208443 0 0.00035748865 0
0.00045829238 0 0.00035500003 0
0.00046060777 0 0.000355 0
0.00046328737 0 0.000355 0
0.00046578487 0 0.000355 0
0.00046828236 0 0.000355 0
0.00047702333 0 0.0003574996 0
0.00048701014 0 0.00035749927 0
0.00048701462 0 0.00035749912 0
0.00039460518 -7.058611e-23 0.00035753958 0
0.00042457428 0 0.00035750023 0
0.00043147859 0 0.00035750002 0
0.00043397166 0 0.00035750008 0
0.0004368665 0 0.0003575002 0
0.00043714535 0 0.00035750035 0
0.00043959253 -7.0591302e-23 0.00035750081 0
0.00044704289 0 0.00035750049 0
0.00047702224 0 0.00035999974 0
0.00048701216 0 0.00035752274 0
0.00039460502 0 0.00036003515 0
0.00047702494 0 0.00036000418 0
0.0004870118 0 0.00036000012 0
0.00039460507 0 0.00036482779 0
0.00044705506 0 0.00036499653 0
0.00048700939 0 0.00036250152 0
0.00039460511 0 0.00036740093 0
0.0004470533 0 0.00036748823 0
0.00039460508 0 0.00036987938 0
0.00044705302 0 0.00036751736 0
0.00047951741 0 0.00036999729 0
0.00048199602 0 0.00036999628 0
0.00048950972 0 0.0003699998 0
0.00049198373 0 0.0003699896 0
0.00049201639 0 0.000369991 0
0.0003946051 0 0.00037008942 0
0.00044705257 0 0.00037249591 0
0.00047951901 0 0.00037000678 0
0.00047955858 7.0591757e-23 0.00037000442 0
0.0004919799 0 0.0003700135 0
0.00049201741 -7.05875e-23 0.00037000968 0
0.00039460508 0 0.00037261966 0
0.00047952318 -7.0586547e-23 0.00037250114 0
0.00039460504 0 0.00037744242 0
0.00044705322 -7.0586193e-23 0.0003750048 0
0.00047952216 0 0.00037500117 0
0.00039460502 0 0.00037968412 0
0.0004195854 0 0.00037750146 0
0.00046453132 0 0.00037999621 0
0.00046454259 0 0.00037999256 0
0.00045454471 0 0.0003824997 0
0.00045455399 0 0.00038249605 0
0.00046452699 0 0.00038001448 0
0.00046454577 7.0587715e-23 0.00038001623 0
0.00048201494 0 0.00038249756 0
0.00048202593 0 0.00038249614 0
0.00045454081 0 0.00038250766 0
0.00045456256 7.0588806e-23 0.00038251556 0
0.00047202808 -7.0586165e-23 0.00038250199 0
0.00048201187 0 0.00038250425 0
0.00048203018 7.0587936e-23 0.0003825054 0
0.00048949082 0 0.00038251047 0
0.00048952476 0 0.00038250152 0
0.00043208261 0 0.00038501512 0
0.00049699681 0 0.00038749388 0
0.00049949022 0 0.00038749645 0
0.00041209185 0 0.0003875221 0
0.00042207451 0 0.00038986058 0
0.00042207771 0 0.00038998467 0
0.00044954229 0 0.00038999013 0
0.00047951659 0 0.00038999633 0
0.00047952601 0 0.00038999223 0
0.00049698339 0 0.00038751343 0
0.00049942473 -7.0596718e-23 0.00038750178 0
0.00038711374 0 0.00039240232 0
0.0004795145 0 0.00039000647 0
0.00047952788 -5.1523976e-18 0.00039001387 0
0.00048701234 0 0.00039249964 0
0.00048704011 0 0.0003924645 0
0.00038712324 7.0588036e-23 0.00039253309 0
0.00044954424 0 0.00039498497 0
0.00044955244 0 0.00039499577 0
0.00047201025 0 0.00039499802 0
0.00048701241 0 0.0003949991 1.4223496e-09
0.00048701716 0 0.00039495916 0
0.00049441234 0 0.00039491504 1.5028301e-09
0.00049471872 0 0.00039491202 2.8296081e-10
0.00038711958 0 0.00039500823 0
0.00044953718 0 0.00039501419 0
0.0004495587 -7.0587445e-23 0.0003950115 0
0.00046952859 0 0.00039500142 0
0.00047188339 0 0.0003950062 0
0.00048699302 0 0.00039739059 2.1167232e-09
0.0004870896 0 0.00039736844 7.6077399e-10
0.00049446776 0 0.00039502966 1.5765295e-09
0.00049463341 -7.0604402e-23 0.00039507385 8.3710645e-10
0.00038711501 -7.0586537e-23 0.00039750067 0