# interfaceEnergyFluxLiquid  FACE_DATA 1912
# x  y  z  interfaceEnergyFluxLiquid
2.4996647e-06 0 8.5034335e-05 0
8.5685423e-08 -3.5844493e-24 9.0598084e-05 0
2.5002157e-06 3.0633755e-24 9.0093703e-05 1.2680729e-09
2.7651164e-07 4.4116299e-24 9.2671855e-05 0
2.569355e-06 0 9.2601656e-05 0
0.00023534164 3.529312e-23 1.2499991e-06 108059.12
0.00023533393 0 3.7499745e-06 105434
0.00023527136 0 6.2499377e-06 104617.7
0.00023519061 3.5300107e-23 8.7499166e-06 103696.34
0.00023508764 3.5302304e-23 1.1249891e-05 102722.92
0.00023494567 0 1.3749864e-05 101253.53
0.00023474129 0 1.7112281e-05 158592.5
0.0002348169 0 1.5847066e-05 100263.97
0.00023464744 0 1.8749876e-05 152511.24
0.00023450323 -3.5304571e-23 2.1249864e-05 146705.07
0.00023432873 0 2.374983e-05 139691.75
0.00023411476 -2.6304672e-21 2.624977e-05 131648.22
0.00023381154 3.5318735e-23 2.8749697e-05 121118.63
0.00023343587 3.5322693e-23 3.124965e-05 111441.79
0.00023303456 3.5323864e-23 3.3749636e-05 105777.6
0.00023262445 0 3.6249633e-05 102221.48
0.00023214269 0 3.9254489e-05 155601.91
0.00023235081 0 3.8002142e-05 100878.57
0.00023179007 3.532964e-23 4.1249568e-05 136606.51
0.00023125706 0 4.3749476e-05 118465.92
0.00023063457 3.5341089e-23 4.6249433e-05 106750.97
0.00022975272 0 4.9924812e-05 151553.8
0.00023004306 3.5334915e-23 4.8650102e-05 100549.88
0.00022947614 0 5.1249508e-05 141549.43
0.00022892365 0 5.3749462e-05 122839.29
0.00022827826 0 5.6249389e-05 109723.85
0.00022726633 0 5.997717e-05 151723.3
0.00022760489 3.5344556e-23 5.8713703e-05 102326.82
0.0002269336 3.5345451e-23 6.1249381e-05 139580.31
0.00022623438 -3.53485e-23 6.3749345e-05 116772.03
0.00022549335 3.535212e-23 6.6249302e-05 106587.78
0.00022455855 0 6.931851e-05 147764.46
0.00022495331 0 6.8066038e-05 100059.71
0.00022391798 3.5358536e-23 7.1249227e-05 120803.1
0.00022304976 3.5361188e-23 7.3749195e-05 106983.61
0.00022201973 0 7.6784372e-05 145063.33
0.0002224658 3.5322904e-23 7.5528812e-05 100131.13
0.00022126378 0 7.8749107e-05 117030.52
0.00022029 0 8.1249075e-05 104840.31
0.0002193 0 8.3818587e-05 132899.8
0.0002198048 0 8.2561398e-05 98692.355
0.00021825027 -3.5377967e-23 8.6248997e-05 108858.38
0.00021698386 0 8.9311192e-05 140122.05
0.00021752095 0 8.8051192e-05 100035.14
0.00021608756 0 9.1248917e-05 113045.26
0.00021459494 0 9.4587884e-05 140006.2
0.00021516694 0 9.3328261e-05 102002.35
0.00021378927 0 9.6248843e-05 116341.97
0.00021214303 0 9.9703324e-05 137490.64
0.00021274818 -3.5369407e-23 9.8445502e-05 102755.18
0.00031177487 0 8.2501307e-05 153363.14
0.00031343791 0 8.2506346e-05 132221.77
0.0003159354 0 8.2510837e-05 123365.88
0.00031843288 0 8.2512188e-05 119242.16
0.00032093037 0 8.2511633e-05 117212.51
0.00032342786 0 8.2510748e-05 116015.16
0.00032592534 0 8.2510315e-05 115229.28
0.00032842283 0 8.2510293e-05 114578.5
0.00033092032 0 8.2510373e-05 114043.21
0.00033341781 0 8.2510383e-05 113536.54
0.0003359153 0 8.2510325e-05 113005.1
0.00033841279 0 8.2510256e-05 112494.37
0.00034091027 0 8.2510204e-05 112007.53
0.00034340776 0 8.2510165e-05 111542.68
0.00034590525 0 8.2510128e-05 111098.29
0.00034840274 0 8.251009e-05 110673.33
0.00035090023 0 8.2510053e-05 110266.99
0.00035339772 0 8.2510017e-05 109878.62
0.00035589521 0 8.2509983e-05 109507.62
0.0003583927 0 8.250995e-05 109153.46
0.00036089019 0 8.2509919e-05 108815.6
0.00036338768 0 8.250989e-05 108493.5
0.00036588517 0 8.2509861e-05 108186.5
0.00036838266 0 8.2509833e-05 107893.91
0.00037088015 0 8.2509808e-05 107615.01
0.00037337764 0 8.250977e-05 107348.94
0.00037587513 0 8.2509752e-05 107095.4
0.00037837262 0 8.2509729e-05 106853.53
0.00038087011 0 8.2509708e-05 106622.88
0.00038336761 0 8.2509686e-05 106402.93
0.0003858651 0 8.2509665e-05 106193.22
0.00038836259 0 8.2509645e-05 105993.31
0.00039086008 0 8.2509626e-05 105802.84
0.00039335757 0 8.2509607e-05 105621.53
0.00039585506 0 8.2509589e-05 105449.17
0.00039835255 0 8.2509572e-05 105285.56
0.00040085005 0 8.2509555e-05 105130.47
0.00040334754 0 8.2509539e-05 104983.63
0.00040584503 0 8.2509522e-05 104844.68
0.00040834252 0 8.2509505e-05 104713.19
0.00041084002 0 8.2509489e-05 104588.73
0.00041333751 0 8.2509474e-05 104470.86
0.000415835 0 8.2509459e-05 104359.17
0.00041833249 0 8.2509445e-05 104253.31
0.00042082999 0 8.2509431e-05 104152.97
0.00042332748 0 8.2509418e-05 104057.94
0.00042582497 0 8.2509406e-05 103968.05
0.00042832246 0 8.2509393e-05 103883.14
0.00043081996 0 8.2509382e-05 103803.02
0.00043331745 0 8.250937e-05 103727.48
0.00043581494 0 8.2509359e-05 103656.26
0.00043831244 0 8.2509348e-05 103589.13
0.00044080993 0 8.2509337e-05 103525.9
0.00044330742 0 8.2509327e-05 103466.44
0.00044580492 0 8.2509317e-05 103410.67
0.00044830241 0 8.2509308e-05 103358.56
0.0004507999 0 8.2509299e-05 103310.07
0.0004532974 0 8.250929e-05 103265.23
0.00045579489 0 8.2509281e-05 103224.08
0.00045829238 0 8.2509273e-05 103186.73
0.00046078988 0 8.2509265e-05 103153.32
0.00046328737 0 8.2509256e-05 103124.15
0.00046578487 0 8.2509247e-05 103099.52
0.00046828236 0 8.2509237e-05 103079.66
0.00047077985 0 8.2509226e-05 103064.44
0.00047327735 0 8.2509215e-05 103053.24
0.00047577484 0 8.2509203e-05 103045.16
0.00047827234 0 8.2509191e-05 103039.4
0.00048076983 0 8.2509179e-05 103035.72
0.00048326733 0 8.2509168e-05 103034.5
0.00048576482 0 8.2509159e-05 103036.58
0.00048826231 0 8.2509149e-05 103043.33
0.00049075981 0 8.2509143e-05 103062.43
0.0004932573 0 8.2509139e-05 103283.48
0.0004957548 0 8.2509093e-05 103085.33
0.00049825229 0 8.2509235e-05 120599.77
2.5050506e-06 0 0.00010739928 0
0.00011238728 0 0.00010500079 0
2.503125e-06 0 0.00010974251 0
2.5025415e-06 -3.5652241e-24 0.00011233919 0
6.243753e-05 0 0.00011000303 0
2.5037674e-06 4.9858201e-24 0.00011261481 0
2.5127128e-06 -8.1942904e-23 0.00011502232 0
5.4946179e-05 0 0.00012250007 0
0.00010989153 0 0.00015000054 0
0.00012179761 0 0.00019964549 130879.83
0.00012363045 0 0.00019850421 109468.83
0.00021136023 0 0.00010124877 116069.17
0.00020963119 0 0.00010468999 134330.08
0.00021026877 -8.9177153e-21 0.00010343414 102004.9
0.00020880085 0 0.0001062487 113982.6
0.00020705883 0 0.00010956666 133226.26
0.00020772852 0 0.00010831093 101209.96
0.00020611052 3.5411369e-23 0.0001112486 111904.79
0.00020441051 0 0.00011432109 130589.21
0.00020511471 0 0.00011306614 99358.126
0.00020328679 0 0.00011624851 108954.13
0.00020168204 0 0.00011896694 124894.13
0.00020242587 3.5315417e-23 0.00011771592 96665.001
0.00019967464 0 0.00012229641 135395.68
0.000200438 -3.5405261e-23 0.00012104719 104973.5
0.0002247937 -3.5295975e-23 0.00012001871 168001.46
0.00019875172 7.031565e-21 0.00012374833 115087.55
0.00019680836 0 0.0001267475 126000.08
0.00019762593 3.5350768e-23 0.00012549492 99260.915
0.00019472618 0 0.00012988276 137066.3
0.00019556201 -3.5429481e-23 0.00012863348 106747.85
0.00019379008 0 0.00013124814 116016.76
0.00019171594 0 0.00013417847 124323.15
0.00019261288 -3.5348966e-23 0.00013292764 98810.365
0.00018955023 0 0.0001371463 128300.25
0.00019046537 0 0.00013589517 103994.12
0.00018835539 3.5468722e-23 0.00013874793 110496.55
0.00018639528 0 0.00014131814 118198.69
0.00018736538 -3.5302998e-23 0.00014006878 95797.607
0.00018414173 0 0.00014416393 122502.05
0.00018514481 0 0.00014291437 98693.743
0.00018185987 0 0.00014694839 123676.93
0.00018289068 0 0.00014569661 101902.64
0.00017955425 0 0.00014968887 126513.7
0.00018061093 -3.544737e-23 0.00014843511 105217.59
0.00017721736 0 0.00015238028 134187.39
0.00017830587 3.5487329e-23 0.0001511278 108931.13
0.00017599028 -3.5517795e-23 0.00015374735 112004.57
0.0001736936 0 0.00015627016 114444.08
0.00017484703 3.5297485e-23 0.00015502408 94999.692
0.00017126175 0 0.00015887085 116016.76
0.00017244299 1.7658335e-23 0.00015762326 95776.627
0.00016880073 0 0.00016143594 116862.71
0.0001700101 1.7665207e-23 0.00016018747 96291.406
0.00016631134 0 0.000163969 117121.54
0.00016754945 1.7669359e-23 0.00016272049 96555.167
0.00016379301 0 0.000166472 116852.11
0.00016505975 -1.7670537e-23 0.00016522318 96518.806
0.00016124392 0 0.00016894622 116027.5
0.00016254161 0 0.00016769804 96227.594
0.00015866299 0 0.0001713917 114572.96
0.00015999235 -1.7663318e-23 0.00017014436 95652.804
0.00015479368 0 0.00017495402 137950.36
0.00015609708 0 0.00017376375 112503.66
0.00015741096 1.7654193e-23 0.00017256355 94846.935
0.0001521339 0 0.0001773135 128027.22
0.00015354834 0 0.00017605888 109818.99
0.00014942299 0 0.00017963814 122936.25
0.00015088513 0 0.00017838548 106275.71
0.00014666831 0 0.0001819353 122048.91
0.00014817307 1.7744065e-23 0.00018068308 102735.16
0.00014386463 0 0.00018420603 119369.66
0.00014541817 0 0.00018295623 99331.171
0.00013973678 0 0.00018740763 133022.8
0.00014111243 0 0.00018635929 112919.7
0.00014261278 -1.7678088e-23 0.00018520088 96516.521
0.00021480708 3.5296666e-23 0.00018502208 167277.92
0.00013679937 0 0.00018958643 123256.36
0.0001384921 0 0.00018833429 105873.35
0.00013380839 0 0.00019174515 118973.32
0.00013554959 -1.7735494e-23 0.00019049391 100032.88
0.00012946331 0 0.00019473044 127110.73
0.00013112271 0 0.00019361259 108936.47
0.00013255617 -1.7671625e-23 0.00019263224 95807.456
0.00012629694 0 0.0001967994 121100.76
0.00012821509 -1.7762236e-23 0.00019555025 101567.64
0.00012504496 0 0.00019760922 96261.695
0.00025974992 3.5294388e-23 0.00010752332 179476.8
0.00025975726 0 0.00012001727 168189.41
0.00026973723 -3.5293986e-23 0.00013001704 180608.63
0.00026723958 3.5293974e-23 0.0001375167 180708.1
0.0004784041 0 0.00016250085 159828.51
0.00048076983 0 0.00016250263 143040.78
0.00048326733 0 0.00016250431 131035.97
0.00048576482 0 0.00016250569 123672.2
0.00048826231 0 0.00016250665 119063.18
0.00049075981 0 0.00016250713 116228.22
0.0004932573 0 0.00016250723 114730.04
0.0004957548 0 0.00016250709 113447.94
0.00049825229 0 0.00016250719 131795.61
0.00011720161 0 0.00020239525 135504.7
0.00011863563 0 0.00020153564 115506.19
0.00012054483 0 0.00020040116 100744.01
0.00011374193 0 0.00020435691 120790.54
0.00011595829 0 0.00020311021 103706.5
0.00010893715 0 0.00020699079 125217.3
0.00011114343 0 0.00020578664 104872.93
0.000112487 -1.7662125e-23 0.00020505526 95409.096
0.00010401558 0 0.00020955285 128761.89
0.00010614865 0 0.00020843464 106111.35
0.00010768199 -1.7693918e-23 0.00020765277 96610.982
9.897472e-05 0 0.00021205204 129816.05
0.00010115389 0 0.00021095707 106357.43
0.00010275884 0 0.00021018162 97124.042
9.3787909e-05 0 0.00021448696 127350.73
9.6159156e-05 0 0.00021335761 105516.93
9.771558e-05 0 0.00021264965 96872.277
8.7147614e-05 0 0.00021739027 141227.09
8.8667113e-05 0 0.00021674409 119569.4
9.1164452e-05 0 0.00021563378 103768.35
9.252776e-05 -1.7669445e-23 0.0002150544 96608.785
8.1545435e-05 0 0.0002196628 138358.5
8.3672463e-05 0 0.00021879072 111570.24
8.589672e-05 0 0.00021790119 101620.26
7.4334502e-05 0 0.0002222956 145512.89
7.6180574e-05 0 0.00022163255 118747.44
7.8677857e-05 0 0.00022069742 105348.36
8.0287007e-05 0 0.00022013857 99106.602
6.6692611e-05 0 0.0002247743 146408.17
6.8688818e-05 0 0.00022414809 120370.85
7.1186053e-05 0 0.00022333554 107175.71
7.3085166e-05 8.9024224e-24 0.00022272211 100718.88
5.7072444e-05 0 0.00022740429 149822.89
5.8700106e-05 0 0.00022698866 130108.45
6.1197245e-05 0 0.00022633892 113256.36
6.3694412e-05 0 0.00022565171 104988.23
6.544266e-05 -8.89153e-24 0.00022515124 100008.44
4.6616242e-05 0 0.00022982153 141484.82
4.8711923e-05 0 0.00022939421 124741.16
5.1208902e-05 0 0.00022887552 112996.31
5.370593e-05 0 0.00022827529 104461.24
5.5823037e-05 -8.9613315e-24 0.00022772514 99300.797
3.2363743e-05 0 0.00023248566 146031.62
3.3731667e-05 0 0.00023230916 137886.77
3.6228103e-05 0 0.00023197266 126121.35
3.8724677e-05 0 0.00023155802 114051.09
4.1221364e-05 0 0.00023103597 103316.35
4.3718143e-05 0 0.00023046179 98328.187
4.5357398e-05 8.9013093e-24 0.00023008628 95555.174
7.2431006e-05 -8.8236869e-24 0.00023000921 156607.23
1.5115901e-06 -4.4116299e-24 0.00023497365 105841.85
6.7622972e-06 8.9907852e-24 0.00023496968 121935.39
8.8007143e-06 0 0.00023486991 121698.08
1.1285e-05 0 0.00023473374 120711.42
1.3774091e-05 0 0.00023455586 117434.21
1.6265769e-05 0 0.00023436651 114162.26
1.8759e-05 0 0.00023417351 111169.05
2.1253235e-05 0 0.00023393252 106443.67
2.3748158e-05 0 0.00023363892 100919.99
2.6243571e-05 0 0.00023331667 98660.873
2.8739348e-05 0 0.00023301098 98258.992
3.1110921e-05 0 0.00023265647 96137.626
2.2340584e-06 1.4106637e-23 0.00023500823 85577.192
3.885e-06 0 0.00023506939 92337.309
5.4911544e-06 0 0.00023501768 90069.513
4.2457345e-05 -2.9767269e-18 0.0002525028 201363.74
2.4976169e-06 0 0.00025996751 215147.05
9.9899397e-06 2.7663486e-23 0.00025998441 216188.36
9.9900133e-06 -1.102909e-24 0.00025751129 217660.88
2.4975672e-06 0 0.00026242573 215605.37
9.9899793e-06 0 0.00026248165 217015.32
9.9900033e-06 1.1029079e-24 0.00026001746 218390
2.4975768e-06 2.7573535e-25 0.00026253741 216043.32
9.9899657e-06 0 0.00026251019 217166.25
9.9900155e-06 -2.0440577e-18 0.00026250771 219024.78
1.74872e-05 0 0.00027249998 217339.13
1.0000076e-05 0 0.00027500052 218944.89
1.7488965e-05 2.2066302e-24 0.00027500004 218065.21
2.4972371e-05 0 0.00028499964 205050.71
1.9980929e-05 0 0.00029500289 201076.07
0.0001198801 -1.7646535e-23 0.00029504723 209976.69
0.0001548497 0 0.00020001176 179517.44
0.00022230591 -3.529755e-23 0.00020251046 180765.93
0.00024225712 0 0.00024000112 181836.74
0.00013486666 -1.7646737e-23 0.00026500033 192119.19
0.00014239588 0 0.00027251001 187295.55
0.00014235814 0 0.00027999993 201533.69
0.00014735198 0 0.00028000013 189215.25
0.00015484447 -2.0680307e-22 0.00028250133 178369.41
0.00016235344 0 0.00028500573 181252.34
0.0001423583 0 0.00028999968 178596.01
0.00018482488 3.5294926e-23 0.00028752404 178121.16
0.00014235734 0 0.00029249943 186671.79
0.00022227848 0 0.00029249827 167375.38
0.0002072933 3.5293176e-23 0.00029303753 194294.53
0.0002197798 0 0.0002925035 208512.26
0.00022226955 0 0.00029496444 190816.71
0.00022228094 0 0.00029497242 200846.14
0.00023726188 0 0.00029499936 164179.98
0.00023973744 0 0.00029499555 193933.41
0.00023726007 0 0.00029500284 165388.17
0.00023974777 0 0.00029500357 186592.73
0.00023976382 0 0.00029500068 197679.9
0.00024227136 3.5295059e-23 0.00029500319 192452.48
0.00012737718 0 0.00029750218 174069.55
0.00020729269 -3.5293072e-23 0.00029762339 209449.05
0.00026725842 0 0.0002625096 181539.68
0.00026222647 0 0.00027249022 166540.09
0.00026224301 0 0.00027249472 166299.84
0.00026219468 0 0.0002725846 173747.75
0.00026225398 3.5295257e-23 0.00027252737 168005.3
0.00025723597 0 0.00027999463 165471.38
0.00025725125 0 0.00027999275 165926.15
0.00025724082 0 0.00028125 188834.6
0.00025724428 0 0.00028125 189156.03
0.00025723573 0 0.00028250643 164862.17
0.00025725047 -3.5294133e-23 0.00028250732 165078.57
0.00028224151 3.5296042e-23 0.00028500889 180630.71
0.00029222652 -3.5295337e-23 0.00028750702 181240.54
0.00025724501 0 0.00029495542 209558.77
0.00025724329 0 0.00029507903 212822.76
0.00025724678 3.5293627e-23 0.00029750822 172848.3
0.00048826231 0 0.00025000086 173446.72
0.00049075981 0 0.00025000111 166202.47
0.0004932573 0 0.00025000113 163497.67
0.0004957548 0 0.00025000112 162645.65
0.00049825229 0 0.00025000124 186979.48
0.00038163764 0 0.0002900001 193067.24
0.00038336761 0 0.00029000044 181545.97
0.0003858651 0 0.00029000059 180121.74
0.00038836259 0 0.00029000042 179783.81
0.00039086008 0 0.00029000033 179465.51
0.00039335757 0 0.00029000039 179040.08
0.00039585506 0 0.00029000041 178799.19
0.00039835255 0 0.0002900004 178806.16
0.00040085005 0 0.00029000039 178942.59
0.00040334754 0 0.00029000039 179125.06
0.00040584503 0 0.00029000039 179321.69
0.00040834252 0 0.00029000039 179506.29
0.00041084002 0 0.00029000038 179673.01
0.00041333751 0 0.00029000038 179810.84
0.000415835 0 0.00029000037 179922.36
0.00041833249 0 0.00029000037 180013.29
0.00042082999 0 0.00029000037 180095.62
0.00042332748 0 0.00029000037 180162.32
0.00042582497 0 0.00029000036 180210.48
0.00042832246 0 0.00029000036 180246.39
0.00043081996 0 0.00029000035 180288.78
0.00043331745 0 0.00029000035 180336.66
0.00043581494 0 0.00029000035 180367.78
0.00043831244 0 0.00029000035 180391.99
0.00044080993 0 0.00029000034 180477.01
0.00044330742 0 0.00029000034 180614.17
0.00044580492 0 0.00029000033 180739.18
0.00044830241 0 0.00029000033 180841.5
0.0004507999 0 0.00029000033 180969.22
0.0004532974 0 0.00029000033 181123.37
0.00045579489 0 0.00029000032 181275.12
0.00045829238 0 0.00029000032 181397.29
0.00046078988 0 0.00029000032 181494.58
0.00046328737 0 0.00029000032 181577.01
0.00046578487 0 0.00029000031 181655.2
0.00046828236 0 0.00029000031 181714.79
0.00047077985 0 0.0002900003 181732.83
0.00047327735 0 0.00029000031 181689.88
0.00047577484 0 0.0002900003 181588.01
0.00047827234 0 0.0002900003 181434.95
0.00048076983 0 0.00029000029 181241.72
0.00048326733 0 0.00029000029 181048.19
0.00048576482 0 0.00029000029 180914.14
0.00048826231 0 0.00029000029 180814.91
0.00049075981 0 0.00029000028 180710.8
0.0004932573 0 0.00029000028 180708.52
0.0004957548 0 0.00029000027 180659.1
0.00049825229 0 0.00029000031 206168.93
1.7483265e-05 2.2059115e-24 0.00030250769 214829.32
8.2419998e-05 -8.8235273e-24 0.00031002393 199685.22
7.4924226e-05 0 0.00031250033 179368.49
8.2419977e-05 0 0.00031250991 188407.07
7.7415543e-05 0 0.00031500621 170202.18
7.7427086e-05 8.8237824e-24 0.00031500336 170306.87
7.9930936e-05 -8.824467e-24 0.000315001 201932.46
0.00011988517 -1.764728e-23 0.00032000009 210603.72
8.2417505e-05 0 0.00032498861 208884.68
8.2417532e-05 8.8232633e-24 0.0003275118 208492.87
8.2417521e-05 0 0.00033249186 208675.93
2.2477516e-05 -4.5373772e-23 0.00033250922 220324.78
0.0001073926 -1.7646536e-23 0.00033255086 207874.34
2.2477515e-05 0 0.00033748774 220663.32
7.7420772e-05 0 0.00033500054 184639.28
8.2417559e-05 -3.4365275e-17 0.00033502317 208203.53
8.2417652e-05 0 0.00033993968 207268.31
2.247751e-05 0 0.0003424343 219957.44
2.2477642e-05 0 0.00034251068 220229.5
8.241758e-05 0 0.00034254046 208335.52
2.2477676e-05 0 0.00034500471 219003.05
8.2417529e-05 0 0.00034697236 195930.51
4.994984e-05 0 0.0003499942 209285.34
8.2417532e-05 0 0.00034975755 201917.28
8.2417513e-05 0 0.0003524427 207632.25
5.2452421e-05 -1.7712589e-19 0.00035250343 177187.37
8.241752e-05 0 0.00035268599 203302.16
8.2417509e-05 8.8232608e-24 0.00035501319 209209.14
0.00011988045 1.7646586e-23 0.00035500117 178989.54
8.2417577e-05 0 0.00035996757 208603.46
9.4906032e-05 1.7646712e-23 0.00036250506 192269.11
8.4913886e-05 0 0.00036999927 170084.58
3.2468968e-05 0 0.0003700019 188080.44
8.4916621e-05 0 0.00037249539 182680.29
8.4916248e-05 0 0.00037498867 200895.95
9.4912426e-05 0 0.00037250739 167817.79
9.9901604e-06 0 0.00037998993 231739.75
9.9901418e-06 0 0.00038000858 231760.48
9.9905248e-06 -2.176451e-19 0.00038250904 229383.21
0.00011988032 0 0.00038500086 180647.56
8.7418067e-05 0 0.00038750194 182492.59
4.7454684e-05 0 0.00039249744 179268.37
4.4956242e-05 0 0.0003925003 197604.6
2.7470845e-05 0 0.00039500339 197623.57
2.747458e-05 -2.6652658e-20 0.0003950047 198639.85
7.4586747e-06 0 0.00039750022 228377.56
6.7432568e-05 -8.8232688e-24 0.00039757067 207965.71
7.9930076e-05 0 0.00039750352 183309.81
0.00011988005 1.7646526e-23 0.00039752226 211784.04
0.00015234951 0 0.00030000008 210058.52
0.00020729251 0 0.00030035795 199867.78
0.00018734092 -3.5298392e-23 0.00030251045 180995.28
0.00020729251 0 0.00030496411 214009.48
0.0002422671 0 0.00030499747 188704.08
0.00020729257 0 0.00030507375 211952.98
0.00024226037 3.5293458e-23 0.00030500094 182676.53
0.0001698302 0 0.00030750046 176323.81
0.00020729264 3.5293064e-23 0.0003075448 214425.36
0.00014736781 -1.7648353e-23 0.00031000684 175872.88
0.00020729287 0 0.00031498037 213840.06
0.00020729271 0 0.00031500293 208807.19
0.0001973157 3.52954e-23 0.00031750986 166599.01
0.00020729386 3.5293271e-23 0.00031750339 179293.41
0.00021729247 3.5294659e-23 0.00031750593 168328.63
0.00022727229 0 0.00032249969 167585.27
0.00018731219 0 0.00032499967 165531.52
0.00018737009 0 0.00032499888 212256.57
0.0002097898 0 0.00032499963 171607.91
0.00021226571 0 0.00032499494 192052.35
0.00022727226 0 0.00032499962 167080.97
0.00022975656 0 0.00032499977 215181.59
0.00016483457 0 0.00032749945 165577.14
0.00018730877 0 0.00032500385 164769.54
0.00018734595 3.529934e-23 0.00032500504 198565.08
0.00020978966 0 0.00032500035 165003.67
0.0002122837 0 0.00032500122 184273.67
0.00022727211 0 0.00032500038 165134.51
0.00022976387 -1.4160238e-18 0.00032500122 194747.49
0.00023976312 0 0.00032749761 166803.17
0.0001648316 0 0.00032997209 198050.28
0.00016483773 0 0.00032998603 192110.43
0.00023975771 0 0.00032750364 166244.35
0.00023977959 3.5295923e-23 0.00032752184 166322.68
0.00013738153 1.7648964e-23 0.00033250681 181787.96
0.00020978848 0 0.00033250818 196709
0.00020979173 0 0.00033250666 189777.12
0.00022727224 0 0.00033251281 214555.74
0.00022727302 0 0.00033252338 213263.67
0.00015734259 0 0.000337499 206423.07
0.00017731938 0 0.00033749818 169566.3
0.00017732714 0 0.00033749744 171088.44
0.00018231474 0 0.00033749789 165781.67
0.00017731962 0 0.000339989 189386.57
0.0001773234 0 0.0003375391 212251.9
0.00019230712 0 0.00033999965 164550.04
0.00019479378 0 0.00033999349 167203.84
0.00019481118 0 0.00033999785 181699.27
0.00020229709 0 0.00033999987 184767.34
0.00020479188 0 0.00033999973 206061.7
0.00020729068 0 0.00033999956 190726.09
0.00023726231 0 0.0003399997 166589.93
0.00016983103 1.7646626e-23 0.00034000155 167586.72
0.00017731972 0 0.00034249332 178440.34
0.00019479189 0 0.00034000973 166178.17
0.00019481792 0 0.00034000617 174399.7
0.00019731985 -3.5296142e-23 0.00034000291 197704.4
0.00020229424 0 0.00034000849 179206.77
0.00020479114 0 0.00034247823 196157.15
0.00020480304 0 0.00034248839 166236.62
0.00020729379 0 0.00034245956 211061.47
0.0002097902 0 0.00034249938 184384.15
0.00021727691 -1.3258429e-18 0.00034249232 165725.81
0.00021729605 0 0.00034249433 177011.89
0.0002197817 0 0.00034249858 165206.98
0.00023726784 -3.5293834e-23 0.00034000378 167332.64
0.00016233755 0 0.00034499887 211717.57
0.0002172782 0 0.00034250387 165630.81
0.00021976002 0 0.00034250123 209283.97
0.00021978272 3.5293477e-23 0.00034250249 165679.81
0.00022976983 0 0.00034261803 211299.87
0.0002297712 0 0.0003425316 211949.2
0.00024725115 0 0.00034250221 167425.09
0.00016233781 0 0.00034998452 212955.49
0.00019230373 0 0.00034751941 193620.05
0.00019231017 3.529353e-23 0.00034751948 199101.55
0.00019729869 0 0.00034751602 189228.93
0.00019979846 0 0.00034756895 209363.26
0.00019980592 0 0.00034998776 173029.17
0.00020230621 0 0.00034999271 165461.83
0.00020479551 0 0.00034999973 172180.22
0.00020978518 0 0.0003499968 166709.37
0.00021227212 0 0.00034999718 196161.41
0.00021977977 0 0.00034999971 165242.52
0.00020978352 0 0.00035000362 170056.89
0.00021226744 0 0.00035000484 190335.06
0.0002122947 -3.5294236e-23 0.00035000569 165614.77
0.00021977829 0 0.00035248085 205342.5
0.00021978593 0 0.0003524826 180382.42
0.00022228064 0 0.00035249542 164517.06
0.000229769 0 0.00035249899 163362.78
0.00023226188 0 0.00035249772 177006.15
0.00024226169 3.529365e-23 0.00035000489 165177.55
0.00022976734 0 0.00035250221 166245.83
0.00023225932 0 0.00035250764 166106.29
0.00023227554 0 0.00035250201 191487.28
0.00023476552 0 0.00035250318 197968.03
0.00017232859 0 0.00035750271 178704.37
0.00013987191 0 0.0003600119 164107.89
0.0002397775 0 0.00036003132 172696.76
0.0002035488 0 0.00036250012 189472.89
0.00020568992 0 0.00036250002 191136.72
0.00020854374 0 0.00036250002 189534.31
0.00021104121 0 0.00036250002 189583.39
0.00021353868 0 0.00036250002 189668.52
0.00021603616 0 0.00036250002 189747.69
0.00021853363 0 0.00036250001 189788.28
0.0002210311 0 0.00036250001 189834.44
0.00022352858 0 0.00036250001 189934.47
0.00022602605 0 0.00036250001 190077.41
0.00022852352 0 0.0003625 190207.95
0.000231021 0 0.0003625 190262.64
0.00019229824 0 0.0003724909 166008.22
0.00019231624 0 0.00037249148 166021.27
0.00019229647 0 0.00037251155 166414.41
0.00019231718 3.5294817e-23 0.00037251006 166508.84
0.00023725915 0 0.00037499463 168230.05
0.00023728106 0 0.00037497787 167947.21
0.00023726669 0 0.00037500357 167196.25
0.00024600586 0 0.00037750066 190259.36
0.00024791891 -3.5387823e-23 0.00037750008 195041.52
0.00012487711 0 0.00038000081 180061.27
0.0001773225 3.529304e-23 0.00038006846 213220.24
0.00016983015 0 0.00038490644 211497.16
0.00017732253 -3.5293046e-23 0.00038261189 211000.84
0.00020980916 3.5296262e-23 0.00038250302 200878.94
0.00017732279 3.5293097e-23 0.00038505812 213093.17
0.00023725268 0 0.00038500897 167399.54
0.0002372626 -3.5293054e-23 0.00038500086 206595.38
0.0001773227 3.529308e-23 0.00038751113 213832.27
0.00018980429 0 0.00038999189 167094.09
0.00021222817 0 0.00039249611 208562.2
0.00021229182 0 0.00039249586 166906.57
0.00021977396 0 0.00039249341 167138.59
0.00021980724 0 0.00039248574 174291.58
0.00015734045 0 0.00039250468 176864.96
0.00015983084 0 0.00039250504 171180.13
0.000162309 0 0.00039250069 211368.7
0.00017485028 0 0.00039251721 167499.26
0.00019979091 0 0.00039250122 201606.13
0.00019985421 -3.5302611e-23 0.00039250025 213787.76
0.00020230187 -3.5293802e-23 0.00039250116 189712.56
0.00020978745 0 0.00039250049 197191.47
0.00021225999 0 0.00039250757 189010.42
0.0002122906 0 0.00039250448 167962
0.00021977667 0 0.00039250331 166665.27
0.0002197978 0 0.00039250484 189985.09
0.00024226773 3.529453e-23 0.00039250563 172421.48
0.00013986522 0 0.00039748438 183672.38
0.00014984384 0 0.00039749204 167480.5
0.00014986175 0 0.00039748727 166287.73
0.00021228873 3.5293244e-23 0.00039500192 167765.56
0.00013986697 0 0.00039998204 180783.32
0.0001498439 0 0.00039750628 166105.56
0.00014985676 0 0.00039750608 166660.83
0.00025724489 3.5293367e-23 0.00030000112 175077.37
0.00025974134 0 0.00030749973 195641.13
0.0002597379 0 0.00030999808 164642.23
0.00025974276 0 0.00030999653 165440.37
0.000259742 3.5293311e-23 0.00031001629 202642
0.00025974045 0 0.00031252083 214235.43
0.00026224404 -3.5293919e-23 0.00032000151 193649.21
0.00029096054 0 0.0003225 190499.03
0.00029345802 0 0.0003225 190505.73
0.00029595551 0 0.0003225 190539.42
0.00027722229 0 0.00032749968 167754.43
0.00026723553 0 0.00032999934 195141.05
0.00027722075 0 0.00032998753 202790.4
0.00027722518 0 0.00032998712 195591.38
0.00025724437 0 0.00033249766 166080.46
0.0002672383 -3.5293805e-23 0.00033000321 171675.03
0.00025724037 0 0.00033250698 185792.71
0.00025724852 0 0.00033251365 175753.73
0.00026473711 0 0.00033250012 209579.45
0.00030719829 0 0.00033250875 167815.1
0.00032219514 3.5294971e-23 0.00033250126 209603.41
0.00034091027 0 0.00033250002 189493.12
0.00034340776 0 0.00033250005 189201.43
0.00034590525 0 0.00033250004 189206.95
0.00034840274 0 0.00033250004 189310.15
0.00035114618 0 0.00033250005 190217.77
0.00035267117 -7.0690839e-23 0.00033250008 197500.91
0.00035489193 -7.0635181e-23 0.00033250017 206538.01
0.00035950065 0 0.00033250024 211233.61
0.00036205386 0 0.00033250038 213811.23
0.00036216286 0 0.00033250098 213385.65
0.00036464839 0 0.00033250172 204234.78
0.00036962098 0 0.00033250121 203699.5
0.00037212349 0 0.00033250346 167045.64
0.00037212989 0 0.0003349954 173923.79
0.00024975084 -3.5293159e-23 0.0003350155 210101.47
0.0002647353 0 0.0003350003 165506.31
0.00029970804 3.5293986e-23 0.00033500007 217237.19
0.00030226176 3.5300542e-23 0.00033500192 211905.24
0.00026473463 0 0.00033999976 165769.43
0.00029470245 0 0.00033751225 194883.27
0.00027724257 -3.5295594e-23 0.00034000203 206583.03
0.00030220128 0 0.00034749526 167794.81
0.00036213731 0 0.0003474996 176201.42
0.00036463735 0 0.00034749494 176600.14
0.00025225225 3.5293705e-23 0.00034750071 199187.74
0.00029470461 0 0.00034758189 213803.57
0.000294707 0 0.0003475443 212000.12
0.00030219295 0 0.00034750547 167215.9
0.00030220605 -3.5294038e-23 0.00034751059 167751.66
0.000354651 7.0587274e-23 0.000347506 166917.8
0.00036213431 0 0.00034750719 177901.6
0.00036459182 0 0.00034754321 168404.24
0.00036463712 -7.0586489e-23 0.00034752761 209579.24
0.00027471209 0 0.00035000057 212699.13
0.00027719342 0 0.00035000042 215015.04
0.00027731984 0 0.00035000005 213137.75
0.0002547387 0 0.00035499425 164677.33
0.00025475686 0 0.00035499546 178882.63
0.00033716515 0 0.00035499817 168708.61
0.00035214224 -6.4351822e-18 0.00035499461 167356.41
0.00035215117 0 0.00035499633 166955.36
0.00025473933 0 0.00035500575 166601.64
0.00025475873 0 0.00035500515 181516.72
0.00025724597 0 0.00035500279 166888.64
0.00028473369 0 0.00035501213 168316.48
0.00029719104 0 0.00035501344 167583.22
0.00032224384 -3.5300305e-23 0.00035500463 207959.57
0.00033716068 1.0145018e-21 0.00035500266 168634.57
0.00033718223 0 0.00035501964 168156.47
0.00035213472 0 0.00035503014 179882.96
0.00035215158 7.0586897e-23 0.0003550202 197254.71
0.00030719223 0 0.00035999972 166610.4
0.00030968606 0 0.0003599988 187093.79
0.00027971123 0 0.00036007953 204033.23
0.00027972038 3.5293087e-23 0.00036000548 211562.81
0.00029721467 0 0.0003624881 167310.74
0.00030719214 0 0.0003600004 166782.87
0.00030966889 0 0.00036001737 167625.6
0.00030969174 -3.5293238e-23 0.00036000281 167774.7
0.00028973123 0 0.0003649906 178191.22
0.00029718398 0 0.00036250244 204197.87
0.00029722728 -3.5295981e-23 0.00036251116 177877.2
0.00036963232 0 0.0003649967 168045.22
0.00026723279 -3.5293078e-23 0.00036567797 195412.79
0.00028972688 3.5295096e-23 0.00036500836 175617.63
0.00029220909 -3.5293232e-23 0.0003650009 172411.83
0.00036962681 0 0.00036501076 188722.97
0.00036963543 7.0587115e-23 0.00036501555 184445.26
0.00026723253 3.5293044e-23 0.00036755151 216508.55
0.00026723253 3.5293043e-23 0.00037006845 215669.98
0.00031691819 0 0.00037249935 206308.53
0.00031710038 0 0.00037250016 214471.75
0.00036463518 0 0.0003749997 168826.92
0.00033715436 0 0.00037502287 183872.68
0.00033717009 -3.5293834e-23 0.00037502803 190652.09
0.00035463412 0 0.00037749735 193520.39