# interfaceEnergyFluxGas  FACE_DATA 1912
# x  y  z  interfaceEnergyFluxGas
2.4996647e-06 0 8.5034335e-05 8.7630888e-09
8.5685423e-08 -3.5844493e-24 9.0598084e-05 1.0162816e-08
2.5002157e-06 3.0633755e-24 9.0093703e-05 8.8959508e-09
2.7651164e-07 4.4116299e-24 9.2671855e-05 9.1242806e-09
2.569355e-06 0 9.2601656e-05 8.2328205e-09
0.00023534164 3.529312e-23 1.2499991e-06 -2.2790529e-09
0.00023533393 0 3.7499745e-06 -1.5008078e-09
0.00023527136 0 6.2499377e-06 -1.6260819e-10
0.00023519061 3.5300107e-23 8.7499166e-06 -1.1428906e-10
0.00023508764 3.5302304e-23 1.1249891e-05 -1.6528893e-09
0.00023494567 0 1.3749864e-05 -2.0257801e-09
0.00023474129 0 1.7112281e-05 -1.7936266e-09
0.0002348169 0 1.5847066e-05 -3.1918286e-09
0.00023464744 0 1.8749876e-05 -1.2930504e-09
0.00023450323 -3.5304571e-23 2.1249864e-05 -7.8523612e-10
0.00023432873 0 2.374983e-05 -6.0051507e-10
0.00023411476 -2.6304672e-21 2.624977e-05 -5.4001492e-10
0.00023381154 3.5318735e-23 2.8749697e-05 -6.8508422e-10
0.00023343587 3.5322693e-23 3.124965e-05 1.4919005e-10
0.00023303456 3.5323864e-23 3.3749636e-05 6.952104e-10
0.00023262445 0 3.6249633e-05 7.9720916e-10
0.00023214269 0 3.9254489e-05 -7.3488517e-10
0.00023235081 0 3.8002142e-05 -9.7911026e-10
0.00023179007 3.532964e-23 4.1249568e-05 -9.8058916e-10
0.00023125706 0 4.3749476e-05 -6.8935162e-10
0.00023063457 3.5341089e-23 4.6249433e-05 -6.235059e-10
0.00022975272 0 4.9924812e-05 1.1408077e-10
0.00023004306 3.5334915e-23 4.8650102e-05 -1.7662787e-10
0.00022947614 0 5.1249508e-05 9.4391916e-11
0.00022892365 0 5.3749462e-05 -4.0169962e-10
0.00022827826 0 5.6249389e-05 -4.4275182e-10
0.00022726633 0 5.997717e-05 -5.5287993e-10
0.00022760489 3.5344556e-23 5.8713703e-05 -2.0872491e-09
0.0002269336 3.5345451e-23 6.1249381e-05 -6.9920726e-10
0.00022623438 -3.53485e-23 6.3749345e-05 -3.3022004e-10
0.00022549335 3.535212e-23 6.6249302e-05 9.6470204e-10
0.00022455855 0 6.931851e-05 1.7433404e-11
0.00022495331 0 6.8066038e-05 9.254741e-10
0.00022391798 3.5358536e-23 7.1249227e-05 -1.5082924e-10
0.00022304976 3.5361188e-23 7.3749195e-05 4.313746e-10
0.00022201973 0 7.6784372e-05 8.4445295e-10
0.0002224658 3.5322904e-23 7.5528812e-05 1.2293377e-10
0.00022126378 0 7.8749107e-05 6.7564052e-10
0.00022029 0 8.1249075e-05 -8.4106308e-11
0.0002193 0 8.3818587e-05 2.1970598e-10
0.0002198048 0 8.2561398e-05 -8.1427519e-10
0.00021825027 -3.5377967e-23 8.6248997e-05 -5.8091231e-10
0.00021698386 0 8.9311192e-05 2.6756398e-10
0.00021752095 0 8.8051192e-05 -5.2405023e-10
0.00021608756 0 9.1248917e-05 1.6601823e-10
0.00021459494 0 9.4587884e-05 1.6029584e-10
0.00021516694 0 9.3328261e-05 -3.8434601e-10
0.00021378927 0 9.6248843e-05 4.6118097e-10
0.00021214303 0 9.9703324e-05 3.1346931e-10
0.00021274818 -3.5369407e-23 9.8445502e-05 7.4445466e-10
0.00031177487 0 8.2501307e-05 0
0.00031343791 0 8.2506346e-05 0
0.0003159354 0 8.2510837e-05 0
0.00031843288 0 8.2512188e-05 0
0.00032093037 0 8.2511633e-05 0
0.00032342786 0 8.2510748e-05 0
0.00032592534 0 8.2510315e-05 0
0.00032842283 0 8.2510293e-05 0
0.00033092032 0 8.2510373e-05 0
0.00033341781 0 8.2510383e-05 0
0.0003359153 0 8.2510325e-05 0
0.00033841279 0 8.2510256e-05 0
0.00034091027 0 8.2510204e-05 0
0.00034340776 0 8.2510165e-05 0
0.00034590525 0 8.2510128e-05 0
0.00034840274 0 8.251009e-05 0
0.00035090023 0 8.2510053e-05 0
0.00035339772 0 8.2510017e-05 0
0.00035589521 0 8.2509983e-05 0
0.0003583927 0 8.250995e-05 0
0.00036089019 0 8.2509919e-05 0
0.00036338768 0 8.250989e-05 0
0.00036588517 0 8.2509861e-05 0
0.00036838266 0 8.2509833e-05 0
0.00037088015 0 8.2509808e-05 0
0.00037337764 0 8.250977e-05 0
0.00037587513 0 8.2509752e-05 0
0.00037837262 0 8.2509729e-05 0
0.00038087011 0 8.2509708e-05 0
0.00038336761 0 8.2509686e-05 0
0.0003858651 0 8.2509665e-05 0
0.00038836259 0 8.2509645e-05 0
0.00039086008 0 8.2509626e-05 0
0.00039335757 0 8.2509607e-05 0
0.00039585506 0 8.2509589e-05 0
0.00039835255 0 8.2509572e-05 0
0.00040085005 0 8.2509555e-05 0
0.00040334754 0 8.2509539e-05 0
0.00040584503 0 8.2509522e-05 0
0.00040834252 0 8.2509505e-05 0
0.00041084002 0 8.2509489e-05 0
0.00041333751 0 8.2509474e-05 0
0.000415835 0 8.2509459e-05 0
0.00041833249 0 8.2509445e-05 0
0.00042082999 0 8.2509431e-05 0
0.00042332748 0 8.2509418e-05 0
0.00042582497 0 8.2509406e-05 0
0.00042832246 0 8.2509393e-05 0
0.00043081996 0 8.2509382e-05 0
0.00043331745 0 8.250937e-05 0
0.00043581494 0 8.2509359e-05 0
0.00043831244 0 8.2509348e-05 0
0.00044080993 0 8.2509337e-05 0
0.00044330742 0 8.2509327e-05 0
0.00044580492 0 8.2509317e-05 0
0.00044830241 0 8.2509308e-05 0
0.0004507999 0 8.2509299e-05 0
0.0004532974 0 8.250929e-05 0
0.00045579489 0 8.2509281e-05 0
0.00045829238 0 8.2509273e-05 0
0.00046078988 0 8.2509265e-05 0
0.00046328737 0 8.2509256e-05 0
0.00046578487 0 8.2509247e-05 0
0.00046828236 0 8.2509237e-05 0
0.00047077985 0 8.2509226e-05 0
0.00047327735 0 8.2509215e-05 0
0.00047577484 0 8.2509203e-05 0
0.00047827234 0 8.2509191e-05 0
0.00048076983 0 8.2509179e-05 0
0.00048326733 0 8.2509168e-05 0
0.00048576482 0 8.2509159e-05 0
0.00048826231 0 8.2509149e-05 0
0.00049075981 0 8.2509143e-05 0
0.0004932573 0 8.2509139e-05 0
0.0004957548 0 8.2509093e-05 0
0.00049825229 0 8.2509235e-05 0
2.5050506e-06 0 0.00010739928 1.2780264e-08
0.00011238728 0 0.00010500079 -9.1340006e-09
2.503125e-06 0 0.00010974251 1.290803e-08
2.5025415e-06 -3.5652241e-24 0.00011233919 1.2790552e-08
6.243753e-05 0 0.00011000303 -1.7947208e-09
2.5037674e-06 4.9858201e-24 0.00011261481 1.272381e-08
2.5127128e-06 -8.1942904e-23 0.00011502232 1.1695045e-08
5.4946179e-05 0 0.00012250007 -1.2063127e-09
0.00010989153 0 0.00015000054 -5.0374295e-09
0.00012179761 0 0.00019964549 -2.7322515e-10
0.00012363045 0 0.00019850421 -8.1779032e-10
0.00021136023 0 0.00010124877 7.2038477e-10
0.00020963119 0 0.00010468999 5.6885587e-10
0.00021026877 -8.9177153e-21 0.00010343414 1.0859801e-09
0.00020880085 0 0.0001062487 4.9815144e-10
0.00020705883 0 0.00010956666 4.2885352e-10
0.00020772852 0 0.00010831093 4.1559223e-10
0.00020611052 3.5411369e-23 0.0001112486 7.1390837e-10
0.00020441051 0 0.00011432109 3.5085283e-10
0.00020511471 0 0.00011306614 5.396869e-10
0.00020328679 0 0.00011624851 -2.859918e-10
0.00020168204 0 0.00011896694 -4.5681574e-10
0.00020242587 3.5315417e-23 0.00011771592 -8.2231764e-10
0.00019967464 0 0.00012229641 -4.7179136e-11
0.000200438 -3.5405261e-23 0.00012104719 -6.6951645e-10
0.0002247937 -3.5295975e-23 0.00012001871 0
0.00019875172 7.031565e-21 0.00012374833 1.5312683e-10
0.00019680836 0 0.0001267475 -3.2436274e-10
0.00019762593 3.5350768e-23 0.00012549492 -2.3755525e-10
0.00019472618 0 0.00012988276 -3.8375737e-10
0.00019556201 -3.5429481e-23 0.00012863348 -3.6643619e-10
0.00019379008 0 0.00013124814 -6.5543054e-10
0.00019171594 0 0.00013417847 -2.8318637e-10
0.00019261288 -3.5348966e-23 0.00013292764 -6.8373916e-10
0.00018955023 0 0.0001371463 -7.1425146e-10
0.00019046537 0 0.00013589517 -2.2638395e-10
0.00018835539 3.5468722e-23 0.00013874793 -8.4368284e-10
0.00018639528 0 0.00014131814 -1.0283364e-09
0.00018736538 -3.5302998e-23 0.00014006878 -7.7508307e-10
0.00018414173 0 0.00014416393 -1.1522705e-09
0.00018514481 0 0.00014291437 -1.9327727e-09
0.00018185987 0 0.00014694839 -4.6446568e-10
0.00018289068 0 0.00014569661 -1.7383944e-09
0.00017955425 0 0.00014968887 -4.8005197e-10
0.00018061093 -3.544737e-23 0.00014843511 -6.5419495e-10
0.00017721736 0 0.00015238028 -8.5756646e-10
0.00017830587 3.5487329e-23 0.0001511278 -3.8430868e-10
0.00017599028 -3.5517795e-23 0.00015374735 -1.1278236e-09
0.0001736936 0 0.00015627016 -1.0375058e-09
0.00017484703 3.5297485e-23 0.00015502408 -2.3745628e-09
0.00017126175 0 0.00015887085 -8.5765183e-10
0.00017244299 1.7658335e-23 0.00015762326 -2.2063618e-09
0.00016880073 0 0.00016143594 -3.6473713e-10
0.0001700101 1.7665207e-23 0.00016018747 0
0.00016631134 0 0.000163969 -2.2501191e-10
0.00016754945 1.7669359e-23 0.00016272049 -6.8522719e-10
0.00016379301 0 0.000166472 5.2591813e-10
0.00016505975 -1.7670537e-23 0.00016522318 6.827573e-10
0.00016124392 0 0.00016894622 7.4690496e-10
0.00016254161 0 0.00016769804 2.0808965e-09
0.00015866299 0 0.0001713917 2.365155e-10
0.00015999235 -1.7663318e-23 0.00017014436 -7.2003686e-10
0.00015479368 0 0.00017495402 4.4505393e-10
0.00015609708 0 0.00017376375 -3.5516841e-11
0.00015741096 1.7654193e-23 0.00017256355 -7.6541715e-10
0.0001521339 0 0.0001773135 4.9727402e-10
0.00015354834 0 0.00017605888 9.4165831e-10
0.00014942299 0 0.00017963814 5.5316015e-10
0.00015088513 0 0.00017838548 8.0808191e-10
0.00014666831 0 0.0001819353 2.5766093e-10
0.00014817307 1.7744065e-23 0.00018068308 7.4730532e-10
0.00014386463 0 0.00018420603 6.6911088e-10
0.00014541817 0 0.00018295623 6.3918721e-10
0.00013973678 0 0.00018740763 2.4587612e-10
0.00014111243 0 0.00018635929 2.5670044e-10
0.00014261278 -1.7678088e-23 0.00018520088 7.0300594e-10
0.00021480708 3.5296666e-23 0.00018502208 0
0.00013679937 0 0.00018958643 4.0529388e-10
0.0001384921 0 0.00018833429 6.6933757e-10
0.00013380839 0 0.00019174515 -2.4460365e-10
0.00013554959 -1.7735494e-23 0.00019049391 9.4968693e-10
0.00012946331 0 0.00019473044 -7.1901593e-10
0.00013112271 0 0.00019361259 -6.0045095e-10
0.00013255617 -1.7671625e-23 0.00019263224 4.517672e-11
0.00012629694 0 0.0001967994 -7.9896251e-10
0.00012821509 -1.7762236e-23 0.00019555025 -2.3977998e-10
0.00012504496 0 0.00019760922 -1.5302981e-09
0.00025974992 3.5294388e-23 0.00010752332 0
0.00025975726 0 0.00012001727 0
0.00026973723 -3.5293986e-23 0.00013001704 0
0.00026723958 3.5293974e-23 0.0001375167 0
0.0004784041 0 0.00016250085 0
0.00048076983 0 0.00016250263 0
0.00048326733 0 0.00016250431 0
0.00048576482 0 0.00016250569 0
0.00048826231 0 0.00016250665 0
0.00049075981 0 0.00016250713 0
0.0004932573 0 0.00016250723 0
0.0004957548 0 0.00016250709 0
0.00049825229 0 0.00016250719 0
0.00011720161 0 0.00020239525 -7.5925655e-10
0.00011863563 0 0.00020153564 -5.6760249e-10
0.00012054483 0 0.00020040116 -6.9781169e-10
0.00011374193 0 0.00020435691 -1.2854008e-09
0.00011595829 0 0.00020311021 -1.6534984e-09
0.00010893715 0 0.00020699079 -6.4546264e-10
0.00011114343 0 0.00020578664 -6.522311e-10
0.000112487 -1.7662125e-23 0.00020505526 -1.5966906e-09
0.00010401558 0 0.00020955285 -1.7103578e-09
0.00010614865 0 0.00020843464 -9.0682369e-10
0.00010768199 -1.7693918e-23 0.00020765277 -6.878338e-10
9.897472e-05 0 0.00021205204 -1.5127117e-09
0.00010115389 0 0.00021095707 -2.1123274e-09
0.00010275884 0 0.00021018162 -3.9302233e-09
9.3787909e-05 0 0.00021448696 -1.0975395e-09
9.6159156e-05 0 0.00021335761 -1.5564001e-09
9.771558e-05 0 0.00021264965 -2.5478883e-09
8.7147614e-05 0 0.00021739027 -1.0815213e-10
8.8667113e-05 0 0.00021674409 -6.9250095e-10
9.1164452e-05 0 0.00021563378 -1.3412125e-09
9.252776e-05 -1.7669445e-23 0.0002150544 -1.7087742e-09
8.1545435e-05 0 0.0002196628 -7.5684814e-11
8.3672463e-05 0 0.00021879072 1.9703989e-10
8.589672e-05 0 0.00021790119 -1.1462722e-10
7.4334502e-05 0 0.0002222956 -2.6119748e-11
7.6180574e-05 0 0.00022163255 -5.0424166e-10
7.8677857e-05 0 0.00022069742 -1.3389972e-09
8.0287007e-05 0 0.00022013857 -1.9817489e-09
6.6692611e-05 0 0.0002247743 -9.1963901e-11
6.8688818e-05 0 0.00022414809 6.9435864e-11
7.1186053e-05 0 0.00022333554 7.6593054e-10
7.3085166e-05 8.9024224e-24 0.00022272211 9.0411163e-10
5.7072444e-05 0 0.00022740429 -1.4322075e-10
5.8700106e-05 0 0.00022698866 -7.3476128e-10
6.1197245e-05 0 0.00022633892 -2.6794171e-10
6.3694412e-05 0 0.00022565171 6.8118755e-10
6.544266e-05 -8.89153e-24 0.00022515124 5.2489274e-10
4.6616242e-05 0 0.00022982153 1.0498906e-09
4.8711923e-05 0 0.00022939421 4.5690613e-10
5.1208902e-05 0 0.00022887552 4.017251e-10
5.370593e-05 0 0.00022827529 1.0652768e-09
5.5823037e-05 -8.9613315e-24 0.00022772514 6.3747339e-10
3.2363743e-05 0 0.00023248566 7.5034807e-10
3.3731667e-05 0 0.00023230916 1.0227939e-09
3.6228103e-05 0 0.00023197266 1.6512375e-09
3.8724677e-05 0 0.00023155802 2.2829352e-09
4.1221364e-05 0 0.00023103597 2.5911156e-09
4.3718143e-05 0 0.00023046179 3.1405884e-09
4.5357398e-05 8.9013093e-24 0.00023008628 3.5620756e-09
7.2431006e-05 -8.8236869e-24 0.00023000921 0
1.5115901e-06 -4.4116299e-24 0.00023497365 5.3481633e-10
6.7622972e-06 8.9907852e-24 0.00023496968 1.5285259e-09
8.8007143e-06 0 0.00023486991 1.3114243e-09
1.1285e-05 0 0.00023473374 6.3306243e-10
1.3774091e-05 0 0.00023455586 5.9208608e-10
1.6265769e-05 0 0.00023436651 1.1487112e-09
1.8759e-05 0 0.00023417351 7.1624209e-10
2.1253235e-05 0 0.00023393252 1.3220419e-10
2.3748158e-05 0 0.00023363892 0
2.6243571e-05 0 0.00023331667 5.5803861e-11
2.8739348e-05 0 0.00023301098 6.4349208e-10
3.1110921e-05 0 0.00023265647 1.0741094e-09
2.2340584e-06 1.4106637e-23 0.00023500823 0
3.885e-06 0 0.00023506939 1.6324119e-10
5.4911544e-06 0 0.00023501768 2.5698615e-09
4.2457345e-05 -2.9767269e-18 0.0002525028 0
2.4976169e-06 0 0.00025996751 0
9.9899397e-06 2.7663486e-23 0.00025998441 0
9.9900133e-06 -1.102909e-24 0.00025751129 0
2.4975672e-06 0 0.00026242573 0
9.9899793e-06 0 0.00026248165 0
9.9900033e-06 1.1029079e-24 0.00026001746 0
2.4975768e-06 2.7573535e-25 0.00026253741 0
9.9899657e-06 0 0.00026251019 0
9.9900155e-06 -2.0440577e-18 0.00026250771 0
1.74872e-05 0 0.00027249998 0
1.0000076e-05 0 0.00027500052 0
1.7488965e-05 2.2066302e-24 0.00027500004 0
2.4972371e-05 0 0.00028499964 0
1.9980929e-05 0 0.00029500289 0
0.0001198801 -1.7646535e-23 0.00029504723 0
0.0001548497 0 0.00020001176 0
0.00022230591 -3.529755e-23 0.00020251046 0
0.00024225712 0 0.00024000112 0
0.00013486666 -1.7646737e-23 0.00026500033 0
0.00014239588 0 0.00027251001 0
0.00014235814 0 0.00027999993 0
0.00014735198 0 0.00028000013 0
0.00015484447 -2.0680307e-22 0.00028250133 0
0.00016235344 0 0.00028500573 0
0.0001423583 0 0.00028999968 0
0.00018482488 3.5294926e-23 0.00028752404 0
0.00014235734 0 0.00029249943 0
0.00022227848 0 0.00029249827 0
0.0002072933 3.5293176e-23 0.00029303753 0
0.0002197798 0 0.0002925035 0
0.00022226955 0 0.00029496444 0
0.00022228094 0 0.00029497242 0
0.00023726188 0 0.00029499936 0
0.00023973744 0 0.00029499555 0
0.00023726007 0 0.00029500284 0
0.00023974777 0 0.00029500357 0
0.00023976382 0 0.00029500068 0
0.00024227136 3.5295059e-23 0.00029500319 0
0.00012737718 0 0.00029750218 0
0.00020729269 -3.5293072e-23 0.00029762339 0
0.00026725842 0 0.0002625096 0
0.00026222647 0 0.00027249022 0
0.00026224301 0 0.00027249472 -8.0162345e-10
0.00026219468 0 0.0002725846 0
0.00026225398 3.5295257e-23 0.00027252737 -1.5479902e-11
0.00025723597 0 0.00027999463 0
0.00025725125 0 0.00027999275 -8.0329701e-10
0.00025724082 0 0.00028125 0
0.00025724428 0 0.00028125 -1.0542167e-09
0.00025723573 0 0.00028250643 0
0.00025725047 -3.5294133e-23 0.00028250732 -8.007326e-10
0.00028224151 3.5296042e-23 0.00028500889 0
0.00029222652 -3.5295337e-23 0.00028750702 0
0.00025724501 0 0.00029495542 0
0.00025724329 0 0.00029507903 0
0.00025724678 3.5293627e-23 0.00029750822 0
0.00048826231 0 0.00025000086 0
0.00049075981 0 0.00025000111 0
0.0004932573 0 0.00025000113 0
0.0004957548 0 0.00025000112 0
0.00049825229 0 0.00025000124 0
0.00038163764 0 0.0002900001 0
0.00038336761 0 0.00029000044 0
0.0003858651 0 0.00029000059 0
0.00038836259 0 0.00029000042 0
0.00039086008 0 0.00029000033 0
0.00039335757 0 0.00029000039 0
0.00039585506 0 0.00029000041 0
0.00039835255 0 0.0002900004 0
0.00040085005 0 0.00029000039 0
0.00040334754 0 0.00029000039 0
0.00040584503 0 0.00029000039 0
0.00040834252 0 0.00029000039 0
0.00041084002 0 0.00029000038 0
0.00041333751 0 0.00029000038 0
0.000415835 0 0.00029000037 0
0.00041833249 0 0.00029000037 0
0.00042082999 0 0.00029000037 0
0.00042332748 0 0.00029000037 0
0.00042582497 0 0.00029000036 0
0.00042832246 0 0.00029000036 0
0.00043081996 0 0.00029000035 0
0.00043331745 0 0.00029000035 0
0.00043581494 0 0.00029000035 0
0.00043831244 0 0.00029000035 0
0.00044080993 0 0.00029000034 0
0.00044330742 0 0.00029000034 0
0.00044580492 0 0.00029000033 0
0.00044830241 0 0.00029000033 0
0.0004507999 0 0.00029000033 0
0.0004532974 0 0.00029000033 0
0.00045579489 0 0.00029000032 0
0.00045829238 0 0.00029000032 0
0.00046078988 0 0.00029000032 0
0.00046328737 0 0.00029000032 0
0.00046578487 0 0.00029000031 0
0.00046828236 0 0.00029000031 0
0.00047077985 0 0.0002900003 0
0.00047327735 0 0.00029000031 0
0.00047577484 0 0.0002900003 0
0.00047827234 0 0.0002900003 0
0.00048076983 0 0.00029000029 0
0.00048326733 0 0.00029000029 0
0.00048576482 0 0.00029000029 0
0.00048826231 0 0.00029000029 0
0.00049075981 0 0.00029000028 0
0.0004932573 0 0.00029000028 0
0.0004957548 0 0.00029000027 0
0.00049825229 0 0.00029000031 0
1.7483265e-05 2.2059115e-24 0.00030250769 0
8.2419998e-05 -8.8235273e-24 0.00031002393 0
7.4924226e-05 0 0.00031250033 0
8.2419977e-05 0 0.00031250991 0
7.7415543e-05 0 0.00031500621 0
7.7427086e-05 8.8237824e-24 0.00031500336 0
7.9930936e-05 -8.824467e-24 0.000315001 0
0.00011988517 -1.764728e-23 0.00032000009 0
8.2417505e-05 0 0.00032498861 0
8.2417532e-05 8.8232633e-24 0.0003275118 0
8.2417521e-05 0 0.00033249186 0
2.2477516e-05 -4.5373772e-23 0.00033250922 0
0.0001073926 -1.7646536e-23 0.00033255086 0
2.2477515e-05 0 0.00033748774 0
7.7420772e-05 0 0.00033500054 0
8.2417559e-05 -3.4365275e-17 0.00033502317 0
8.2417652e-05 0 0.00033993968 0
2.247751e-05 0 0.0003424343 0
2.2477642e-05 0 0.00034251068 0
8.241758e-05 0 0.00034254046 0
2.2477676e-05 0 0.00034500471 0
8.2417529e-05 0 0.00034697236 0
4.994984e-05 0 0.0003499942 0
8.2417532e-05 0 0.00034975755 0
8.2417513e-05 0 0.0003524427 0
5.2452421e-05 -1.7712589e-19 0.00035250343 0
8.241752e-05 0 0.00035268599 0
8.2417509e-05 8.8232608e-24 0.00035501319 0
0.00011988045 1.7646586e-23 0.00035500117 0
8.2417577e-05 0 0.00035996757 0
9.4906032e-05 1.7646712e-23 0.00036250506 0
8.4913886e-05 0 0.00036999927 0
3.2468968e-05 0 0.0003700019 0
8.4916621e-05 0 0.00037249539 0
8.4916248e-05 0 0.00037498867 0
9.4912426e-05 0 0.00037250739 0
9.9901604e-06 0 0.00037998993 0
9.9901418e-06 0 0.00038000858 0
9.9905248e-06 -2.176451e-19 0.00038250904 0
0.00011988032 0 0.00038500086 0
8.7418067e-05 0 0.00038750194 0
4.7454684e-05 0 0.00039249744 0
4.4956242e-05 0 0.0003925003 0
2.7470845e-05 0 0.00039500339 0
2.747458e-05 -2.6652658e-20 0.0003950047 0
7.4586747e-06 0 0.00039750022 0
6.7432568e-05 -8.8232688e-24 0.00039757067 0
7.9930076e-05 0 0.00039750352 0
0.00011988005 1.7646526e-23 0.00039752226 0
0.00015234951 0 0.00030000008 0
0.00020729251 0 0.00030035795 0
0.00018734092 -3.5298392e-23 0.00030251045 0
0.00020729251 0 0.00030496411 0
0.0002422671 0 0.00030499747 0
0.00020729257 0 0.00030507375 0
0.00024226037 3.5293458e-23 0.00030500094 0
0.0001698302 0 0.00030750046 0
0.00020729264 3.5293064e-23 0.0003075448 0
0.00014736781 -1.7648353e-23 0.00031000684 0
0.00020729287 0 0.00031498037 0
0.00020729271 0 0.00031500293 0
0.0001973157 3.52954e-23 0.00031750986 0
0.00020729386 3.5293271e-23 0.00031750339 0
0.00021729247 3.5294659e-23 0.00031750593 0
0.00022727229 0 0.00032249969 0
0.00018731219 0 0.00032499967 0
0.00018737009 0 0.00032499888 0
0.0002097898 0 0.00032499963 0
0.00021226571 0 0.00032499494 0
0.00022727226 0 0.00032499962 0
0.00022975656 0 0.00032499977 0
0.00016483457 0 0.00032749945 0
0.00018730877 0 0.00032500385 0
0.00018734595 3.529934e-23 0.00032500504 0
0.00020978966 0 0.00032500035 0
0.0002122837 0 0.00032500122 0
0.00022727211 0 0.00032500038 0
0.00022976387 -1.4160238e-18 0.00032500122 0
0.00023976312 0 0.00032749761 0
0.0001648316 0 0.00032997209 0
0.00016483773 0 0.00032998603 0
0.00023975771 0 0.00032750364 0
0.00023977959 3.5295923e-23 0.00032752184 0
0.00013738153 1.7648964e-23 0.00033250681 0
0.00020978848 0 0.00033250818 0
0.00020979173 0 0.00033250666 0
0.00022727224 0 0.00033251281 0
0.00022727302 0 0.00033252338 0
0.00015734259 0 0.000337499 0
0.00017731938 0 0.00033749818 0
0.00017732714 0 0.00033749744 0
0.00018231474 0 0.00033749789 0
0.00017731962 0 0.000339989 0
0.0001773234 0 0.0003375391 0
0.00019230712 0 0.00033999965 0
0.00019479378 0 0.00033999349 0
0.00019481118 0 0.00033999785 0
0.00020229709 0 0.00033999987 0
0.00020479188 0 0.00033999973 0
0.00020729068 0 0.00033999956 0
0.00023726231 0 0.0003399997 0
0.00016983103 1.7646626e-23 0.00034000155 0
0.00017731972 0 0.00034249332 0
0.00019479189 0 0.00034000973 0
0.00019481792 0 0.00034000617 0
0.00019731985 -3.5296142e-23 0.00034000291 0
0.00020229424 0 0.00034000849 0
0.00020479114 0 0.00034247823 0
0.00020480304 0 0.00034248839 0
0.00020729379 0 0.00034245956 0
0.0002097902 0 0.00034249938 0
0.00021727691 -1.3258429e-18 0.00034249232 0
0.00021729605 0 0.00034249433 0
0.0002197817 0 0.00034249858 0
0.00023726784 -3.5293834e-23 0.00034000378 0
0.00016233755 0 0.00034499887 0
0.0002172782 0 0.00034250387 0
0.00021976002 0 0.00034250123 0
0.00021978272 3.5293477e-23 0.00034250249 0
0.00022976983 0 0.00034261803 0
0.0002297712 0 0.0003425316 0
0.00024725115 0 0.00034250221 0
0.00016233781 0 0.00034998452 0
0.00019230373 0 0.00034751941 0
0.00019231017 3.529353e-23 0.00034751948 0
0.00019729869 0 0.00034751602 0
0.00019979846 0 0.00034756895 0
0.00019980592 0 0.00034998776 0
0.00020230621 0 0.00034999271 0
0.00020479551 0 0.00034999973 0
0.00020978518 0 0.0003499968 0
0.00021227212 0 0.00034999718 0
0.00021977977 0 0.00034999971 0
0.00020978352 0 0.00035000362 0
0.00021226744 0 0.00035000484 0
0.0002122947 -3.5294236e-23 0.00035000569 0
0.00021977829 0 0.00035248085 0
0.00021978593 0 0.0003524826 0
0.00022228064 0 0.00035249542 0
0.000229769 0 0.00035249899 0
0.00023226188 0 0.00035249772 0
0.00024226169 3.529365e-23 0.00035000489 0
0.00022976734 0 0.00035250221 0
0.00023225932 0 0.00035250764 0
0.00023227554 0 0.00035250201 0
0.00023476552 0 0.00035250318 0
0.00017232859 0 0.00035750271 0
0.00013987191 0 0.0003600119 0
0.0002397775 0 0.00036003132 0
0.0002035488 0 0.00036250012 0
0.00020568992 0 0.00036250002 0
0.00020854374 0 0.00036250002 0
0.00021104121 0 0.00036250002 0
0.00021353868 0 0.00036250002 0
0.00021603616 0 0.00036250002 0
0.00021853363 0 0.00036250001 0
0.0002210311 0 0.00036250001 0
0.00022352858 0 0.00036250001 0
0.00022602605 0 0.00036250001 0
0.00022852352 0 0.0003625 0
0.000231021 0 0.0003625 0
0.00019229824 0 0.0003724909 0
0.00019231624 0 0.00037249148 0
0.00019229647 0 0.00037251155 0
0.00019231718 3.5294817e-23 0.00037251006 0
0.00023725915 0 0.00037499463 0
0.00023728106 0 0.00037497787 0
0.00023726669 0 0.00037500357 0
0.00024600586 0 0.00037750066 0
0.00024791891 -3.5387823e-23 0.00037750008 0
0.00012487711 0 0.00038000081 0
0.0001773225 3.529304e-23 0.00038006846 0
0.00016983015 0 0.00038490644 0
0.00017732253 -3.5293046e-23 0.00038261189 0
0.00020980916 3.5296262e-23 0.00038250302 0
0.00017732279 3.5293097e-23 0.00038505812 0
0.00023725268 0 0.00038500897 0
0.0002372626 -3.5293054e-23 0.00038500086 0
0.0001773227 3.529308e-23 0.00038751113 0
0.00018980429 0 0.00038999189 0
0.00021222817 0 0.00039249611 0
0.00021229182 0 0.00039249586 0
0.00021977396 0 0.00039249341 0
0.00021980724 0 0.00039248574 0
0.00015734045 0 0.00039250468 0
0.00015983084 0 0.00039250504 0
0.000162309 0 0.00039250069 0
0.00017485028 0 0.00039251721 0
0.00019979091 0 0.00039250122 0
0.00019985421 -3.5302611e-23 0.00039250025 0
0.00020230187 -3.5293802e-23 0.00039250116 0
0.00020978745 0 0.00039250049 0
0.00021225999 0 0.00039250757 0
0.0002122906 0 0.00039250448 0
0.00021977667 0 0.00039250331 0
0.0002197978 0 0.00039250484 0
0.00024226773 3.529453e-23 0.00039250563 0
0.00013986522 0 0.00039748438 0
0.00014984384 0 0.00039749204 0
0.00014986175 0 0.00039748727 0
0.00021228873 3.5293244e-23 0.00039500192 0
0.00013986697 0 0.00039998204 0
0.0001498439 0 0.00039750628 0
0.00014985676 0 0.00039750608 0
0.00025724489 3.5293367e-23 0.00030000112 0
0.00025974134 0 0.00030749973 0
0.0002597379 0 0.00030999808 0
0.00025974276 0 0.00030999653 0
0.000259742 3.5293311e-23 0.00031001629 0
0.00025974045 0 0.00031252083 0
0.00026224404 -3.5293919e-23 0.00032000151 0
0.00029096054 0 0.0003225 0
0.00029345802 0 0.0003225 0
0.00029595551 0 0.0003225 0
0.00027722229 0 0.00032749968 0
0.00026723553 0 0.00032999934 0
0.00027722075 0 0.00032998753 0
0.00027722518 0 0.00032998712 0
0.00025724437 0 0.00033249766 0
0.0002672383 -3.5293805e-23 0.00033000321 0
0.00025724037 0 0.00033250698 0
0.00025724852 0 0.00033251365 0
0.00026473711 0 0.00033250012 0
0.00030719829 0 0.00033250875 0
0.00032219514 3.5294971e-23 0.00033250126 0
0.00034091027 0 0.00033250002 0
0.00034340776 0 0.00033250005 0
0.00034590525 0 0.00033250004 0
0.00034840274 0 0.00033250004 0
0.00035114618 0 0.00033250005 0
0.00035267117 -7.0690839e-23 0.00033250008 0
0.00035489193 -7.0635181e-23 0.00033250017 0
0.00035950065 0 0.00033250024 0
0.00036205386 0 0.00033250038 0
0.00036216286 0 0.00033250098 0
0.00036464839 0 0.00033250172 0
0.00036962098 0 0.00033250121 0
0.00037212349 0 0.00033250346 0
0.00037212989 0 0.0003349954 0
0.00024975084 -3.5293159e-23 0.0003350155 0
0.0002647353 0 0.0003350003 0
0.00029970804 3.5293986e-23 0.00033500007 0
0.00030226176 3.5300542e-23 0.00033500192 0
0.00026473463 0 0.00033999976 0
0.00029470245 0 0.00033751225 0
0.00027724257 -3.5295594e-23 0.00034000203 0
0.00030220128 0 0.00034749526 0
0.00036213731 0 0.0003474996 0
0.00036463735 0 0.00034749494 0
0.00025225225 3.5293705e-23 0.00034750071 0
0.00029470461 0 0.00034758189 0
0.000294707 0 0.0003475443 0
0.00030219295 0 0.00034750547 0
0.00030220605 -3.5294038e-23 0.00034751059 0
0.000354651 7.0587274e-23 0.000347506 0
0.00036213431 0 0.00034750719 0
0.00036459182 0 0.00034754321 0
0.00036463712 -7.0586489e-23 0.00034752761 0
0.00027471209 0 0.00035000057 0
0.00027719342 0 0.00035000042 0
0.00027731984 0 0.00035000005 0
0.0002547387 0 0.00035499425 0
0.00025475686 0 0.00035499546 0
0.00033716515 0 0.00035499817 0
0.00035214224 -6.4351822e-18 0.00035499461 0
0.00035215117 0 0.00035499633 0
0.00025473933 0 0.00035500575 0
0.00025475873 0 0.00035500515 0
0.00025724597 0 0.00035500279 0
0.00028473369 0 0.00035501213 0
0.00029719104 0 0.00035501344 0
0.00032224384 -3.5300305e-23 0.00035500463 0
0.00033716068 1.0145018e-21 0.00035500266 0
0.00033718223 0 0.00035501964 0
0.00035213472 0 0.00035503014 0
0.00035215158 7.0586897e-23 0.0003550202 0
0.00030719223 0 0.00035999972 0
0.00030968606 0 0.0003599988 0
0.00027971123 0 0.00036007953 0
0.00027972038 3.5293087e-23 0.00036000548 0
0.00029721467 0 0.0003624881 0
0.00030719214 0 0.0003600004 0
0.00030966889 0 0.00036001737 0
0.00030969174 -3.5293238e-23 0.00036000281 0
0.00028973123 0 0.0003649906 0
0.00029718398 0 0.00036250244 0
0.00029722728 -3.5295981e-23 0.00036251116 0
0.00036963232 0 0.0003649967 0
0.00026723279 -3.5293078e-23 0.00036567797 0
0.00028972688 3.5295096e-23 0.00036500836 0
0.00029220909 -3.5293232e-23 0.0003650009 0
0.00036962681 0 0.00036501076 0
0.00036963543 7.0587115e-23 0.00036501555 0
0.00026723253 3.5293044e-23 0.00036755151 0
0.00026723253 3.5293043e-23 0.00037006845 0
0.00031691819 0 0.00037249935 0
0.00031710038 0 0.00037250016 0
0.00036463518 0 0.0003749997 0
0.00033715436 0 0.00037502287 0
0.00033717009 -3.5293834e-23 0.00037502803 0
0.00035463412 0 0.00037749735 0
0.00035464752 0 0.00037749748 0
0.00036463186 0 0.00037748425 0
0.0003646368 0 0.00037748858 0
0.00025100082 0 0.00037750001 0
0.00025407664 0 0.00037750001 0
0.00025599578 0 0.0003775 0
0.00025840775 3.5451951e-23 0.0003775 0
0.00026099074 0 0.0003775 0
0.00026971335 0 0.00037751877 0
0.00026974058 0 0.00037750936 0
0.00035461192 0 0.00037750276 0
0.00035464778 7.0586632e-23 0.00037750249 0
0.00033966195 0 0.00038249931 0
0.00027222242 0 0.0003849924 0
0.00027223576 0 0.00038498838 0
0.00027972539 0 0.00038499327 0
0.0003096593 0 0.00038499834 0
0.00030969248 0 0.00038499749 0
0.0003171768 0 0.00038499436 0
0.0003172192 0 0.00038498953 0
0.0003296593 0 0.00038498829 0
0.00032970305 0 0.00038497882 0
0.0003396594 3.1795938e-22 0.0003825006 0
0.00033968502 -3.5295639e-23 0.00038251802 0
0.00035213292 0 0.0003849888 0
0.00035216119 0 0.00038499133 0
0.0002647267 0 0.00038748356 0
0.00026474504 0 0.00038746435 0
0.00027222052 0 0.00038501694 0
0.00027224044 3.5294717e-23 0.00038501966 0
0.00027971261 0 0.00038500923 0
0.00027973449 -3.5294868e-23 0.00038502232 0
0.00030965106 0 0.00038501076 0
0.00030969339 -8.9597888e-18 0.00038500373 0
0.00031717549 0 0.00038500709 0
0.00031721633 3.5296803e-23 0.00038500834 0
0.00032966163 0 0.00038500854 0
0.00032969375 0 0.00038501141 0
0.00035213346 0 0.00038501499 0
0.00035216155 0 0.00038501483 0
0.00026472712 0 0.00038750812 0
0.00026474108 0 0.00038750706 0
0.00029469502 0 0.0003899893 0
0.00029471821 0 0.00038998753 0
0.00029469627 0 0.00039000893 0
0.00029471701 3.5294477e-23 0.0003900108 0
0.00027969287 0 0.00039496063 0
0.00031968057 0 0.00039499943 0
0.00033217294 3.5293617e-23 0.00039250225 0
0.00026473587 0 0.00039749178 0
0.0003196743 0 0.00039500287 0
0.00036964001 -7.058799e-23 0.00039501175 0
0.00026473587 0 0.00039998873 0
0.00029468967 0 0.0003999795 0
0.00029471483 0 0.00039998502 0
0.00038087011 0 0.00030000394 0
0.00038280893 0 0.00030000052 0
0.0003858651 0 0.00030000004 0
0.00038915801 0 0.00030000002 0
0.00039086008 0 0.00030000003 0
0.00039335757 0 0.00030000003 0
0.00039585506 0 0.00030000003 0
0.00039835255 0 0.00030000003 0
0.00040085005 0 0.00030000002 0
0.00040334754 0 0.00030000002 0
0.00040584503 0 0.00030000002 0
0.00040834252 0 0.00030000002 0
0.00041084002 0 0.00030000001 0
0.00041333751 0 0.00030000001 0
0.000415835 0 0.0003 0
0.00041758471 -7.0670936e-23 0.00030000002 0
0.00041971232 0 0.00030000001 0
0.00042451059 0 0.00030000001 0
0.00042723582 7.0613058e-23 0.00030000011 0
0.00047949962 0 0.00030000267 0
0.00048194707 0 0.00030000184 0
0.00048213764 0 0.00030000066 0
0.00048472271 0 0.00030000024 0
0.00048923695 0 0.00030000018 0
0.00049130251 0 0.00030000015 0
0.0004932573 0 0.00030000007 0
0.0004957548 0 0.00030000008 0
0.00049825229 0 0.00030000009 0
0.00047203057 0 0.00030749731 0
0.00047202595 0 0.00030752717 0
0.00047204098 0 0.00030984994 0
0.0004720265 0 0.00031000101 0