# interfaceEnergyFluxGas  FACE_DATA 45
# x  y  z  interfaceEnergyFluxGas
5.6436146e-05 -8.8283305e-24 1.2497605e-06 -9.9077486e-11
5.6355342e-05 0 3.7494647e-06 -4.0714631e-10
5.6130913e-05 0 6.2489529e-06 -5.8011441e-10
5.5781667e-05 -8.8556406e-24 8.7484709e-06 -6.1730088e-10
5.5307399e-05 8.8650818e-24 1.1248025e-05 -2.1094061e-10
5.4694538e-05 0 1.3986158e-05 -9.2196057e-11
5.5002046e-05 8.8324078e-24 1.2735114e-05 -3.2208324e-10
5.4086162e-05 0 1.6247151e-05 2.6005767e-10
5.3245477e-05 -1.2765335e-22 1.8746473e-05 6.1005348e-10
5.2116609e-05 0 2.1695928e-05 -1.4390832e-10
5.262579e-05 0 2.0441231e-05 3.6774112e-10
5.1208642e-05 8.9235368e-24 2.3745265e-05 -2.8165915e-10
4.9626562e-05 0 2.6894161e-05 4.5326209e-10
5.0285406e-05 0 2.5642726e-05 -2.193946e-10
4.8567692e-05 -8.957496e-24 2.8743661e-05 4.7453584e-10
4.6804393e-05 0 3.1537138e-05 1.0273994e-09
4.7639565e-05 -8.8578609e-24 3.028658e-05 8.2463336e-10
4.4621786e-05 0 3.4565742e-05 1.4720072e-10
4.5552785e-05 0 3.3307342e-05 1.2411479e-09
4.2329925e-05 0 3.7354115e-05 2.9058311e-10
4.337284e-05 -4.3785191e-22 3.6088086e-05 7.2857436e-11
3.9905989e-05 0 3.9945858e-05 1.1346817e-09
4.1083966e-05 4.5312704e-24 3.8676677e-05 1.0719892e-09
3.7318513e-05 0 4.2373162e-05 1.1127844e-09
3.8661023e-05 4.5470513e-24 4.1104671e-05 1.4810537e-09
3.4536635e-05 -7.8346288e-23 4.466616e-05 7.3310547e-10
3.6072199e-05 0 4.340232e-05 1.2286428e-09
3.1522687e-05 0 4.6844005e-05 9.4467864e-10
3.3286404e-05 0 4.5592835e-05 6.1938923e-10
2.6878544e-05 0 4.9675303e-05 8.2128202e-10
2.8739348e-05 0 4.8606105e-05 1.0927338e-09
3.0260882e-05 -4.4539029e-24 4.7688006e-05 1.4083239e-09
2.1695856e-05 0 5.2167261e-05 2.9910107e-11
2.3748158e-05 0 5.1253812e-05 2.2647046e-10
2.5630042e-05 4.5234598e-24 5.0334435e-05 4.4418037e-10
1.402056e-05 0 5.4747215e-05 -9.4315407e-10
1.6265769e-05 0 5.413963e-05 -5.5086356e-10
1.8759e-05 0 5.3295479e-05 -2.3340738e-10
2.0436728e-05 -2.2547575e-24 5.2681001e-05 -2.4201066e-10
1.665e-06 0 5.6465194e-05 -2.9526229e-10
3.885e-06 0 5.6429134e-05 -3.8726422e-10
6.327e-06 0 5.62055e-05 -7.0884422e-10
8.8007143e-06 0 5.584835e-05 -1.6673967e-09
1.1285e-05 0 5.5365027e-05 -1.8568726e-09
1.2748727e-05 -2.2507147e-24 5.5062507e-05 -1.9867946e-09
