# interfaceEnergyFluxLiquid  FACE_DATA 45
# x  y  z  interfaceEnergyFluxLiquid
5.6436146e-05 -8.8283305e-24 1.2497605e-06 85157.123
5.6355342e-05 0 3.7494647e-06 84864.475
5.6130913e-05 0 6.2489529e-06 81869.96
5.5781667e-05 -8.8556406e-24 8.7484709e-06 79244.989
5.5307399e-05 8.8650818e-24 1.1248025e-05 78916.164
5.4694538e-05 0 1.3986158e-05 104919.54
5.5002046e-05 8.8324078e-24 1.2735114e-05 79188.126
5.4086162e-05 0 1.6247151e-05 86690.554
5.3245477e-05 -1.2765335e-22 1.8746473e-05 79281.205
5.2116609e-05 0 2.1695928e-05 101759.48
5.262579e-05 0 2.0441231e-05 77305.204
5.1208642e-05 8.9235368e-24 2.3745265e-05 81763.619
4.9626562e-05 0 2.6894161e-05 98717.996
5.0285406e-05 0 2.5642726e-05 77428.414
4.8567692e-05 -8.957496e-24 2.8743661e-05 80952.941
4.6804393e-05 0 3.1537138e-05 89776.051
4.7639565e-05 -8.8578609e-24 3.028658e-05 76283.694
4.4621786e-05 0 3.4565742e-05 92836.117
4.5552785e-05 0 3.3307342e-05 78097.587
4.2329925e-05 0 3.7354115e-05 100436.7
4.337284e-05 -4.3785191e-22 3.6088086e-05 79777.411
3.9905989e-05 0 3.9945858e-05 106135.78
4.1083966e-05 4.5312704e-24 3.8676677e-05 82196.221
3.7318513e-05 0 4.2373162e-05 100378.16
3.8661023e-05 4.5470513e-24 4.1104671e-05 82300.631
3.4536635e-05 -7.8346288e-23 4.466616e-05 93045.696
3.6072199e-05 0 4.340232e-05 80060.61
3.1522687e-05 0 4.6844005e-05 90958.201
3.3286404e-05 0 4.5592835e-05 80476.607
2.6878544e-05 0 4.9675303e-05 98738.054
2.8739348e-05 0 4.8606105e-05 81772.64
3.0260882e-05 -4.4539029e-24 4.7688006e-05 79383.471
2.1695856e-05 0 5.2167261e-05 101256.51
2.3748158e-05 0 5.1253812e-05 82354.405
2.5630042e-05 4.5234598e-24 5.0334435e-05 83048.413
1.402056e-05 0 5.4747215e-05 101835.71
1.6265769e-05 0 5.413963e-05 86100.524
1.8759e-05 0 5.3295479e-05 85134.927
2.0436728e-05 -2.2547575e-24 5.2681001e-05 82815.616
1.665e-06 0 5.6465194e-05 75501.026
3.885e-06 0 5.6429134e-05 79116.327
6.327e-06 0 5.62055e-05 79242.18
8.8007143e-06 0 5.584835e-05 101871.8
1.1285e-05 0 5.5365027e-05 92542.01
1.2748727e-05 -2.2507147e-24 5.5062507e-05 82930.418
