# interfaceEnergyFluxLiquid  FACE_DATA 1070
# x  y  z  interfaceEnergyFluxLiquid
2.502565e-06 0 9.002427e-05 0
4.1881811e-07 3.3087225e-24 9.2625861e-05 0
2.5785832e-06 -8.1679853e-22 9.2587027e-05 0
0.00035981791 0 1.2500243e-06 60503.458
0.0003598728 0 3.7500027e-06 60010.146
0.0003598178 0 6.2499698e-06 59651.825
0.00035976385 7.059192e-23 8.7499655e-06 59514.827
0.00035970751 0 1.124996e-05 59603.727
0.00035961352 0 1.426604e-05 77623.239
0.00035965701 -4.1971651e-21 1.3007153e-05 60062.359
0.0003595358 7.0596914e-23 1.6249936e-05 75119.23
0.00035940628 7.060036e-23 1.8749916e-05 72023.37
0.00035924553 0 2.1249902e-05 68554.224
0.00035906863 7.0603361e-23 2.3749898e-05 65541.034
0.00035889423 7.0604592e-23 2.6249891e-05 63564.725
0.00035869137 0 2.8749879e-05 61620.769
0.00035847038 0 3.1249868e-05 60058.343
0.00035824179 -7.061084e-23 3.3749854e-05 59112.674
0.00035796761 -7.0612335e-23 3.6249845e-05 58286.53
0.0003577002 7.0613198e-23 3.874984e-05 58343.5
0.00035741733 0 4.1249809e-05 58649.75
0.00035700064 0 4.4078543e-05 73768.805
0.00035719291 0 4.2832469e-05 58819.364
0.00035665564 -7.0624108e-23 4.6249776e-05 65191.763
0.0003562764 0 4.8749785e-05 60684.895
0.00035592211 0 5.1249797e-05 58857.515
0.00035556996 0 5.3749798e-05 58512.84
0.00035521421 0 5.6249766e-05 59106.123
0.00035458586 0 5.9706685e-05 77135.394
0.00035483414 0 5.8473919e-05 58918.62
0.00035423417 7.0639227e-23 6.1249686e-05 66768.664
0.00035370821 0 6.3749711e-05 59777.003
0.00035325401 0 6.6249752e-05 58037.376
0.00035284297 -7.0629949e-23 6.8749741e-05 59126.605
0.00035212102 0 7.2383469e-05 78889.843
0.00035239766 7.0636175e-23 7.1162335e-05 59709.792
0.00035174646 -7.0650177e-23 7.3749622e-05 68720.295
0.00035109424 -7.0647463e-23 7.6249638e-05 59898.782
0.00035052777 7.0641416e-23 7.8749673e-05 58616.451
0.00034999283 0 8.124964e-05 59394.988
0.00034930414 0 8.3766935e-05 70314.522
0.00034965714 0 8.2525693e-05 59406.873
0.00034858043 3.5327564e-23 8.6249592e-05 60281.096
0.000347932 3.5327681e-23 8.8749591e-05 59134.004
0.00034700559 0 9.2006421e-05 75779.619
0.00034737546 -3.5315687e-23 9.0761919e-05 58240.759
0.00034645205 0 9.3749544e-05 63818.495
0.00034569488 0 9.6249538e-05 59235.794
0.00034459506 0 9.9813514e-05 73683.915
0.00034499378 0 9.8566122e-05 58040.668
0.00039835255 0 8.2511373e-05 113907.57
0.00040085005 0 8.2528848e-05 100057.55
0.00040334754 0 8.2538361e-05 92346.446
0.00040584503 0 8.253994e-05 88072.49
0.00040834252 0 8.2536724e-05 85442.563
0.00041084002 0 8.2532716e-05 83686.26
0.00041333751 0 8.2530371e-05 82426
0.000415835 0 8.2529927e-05 81452.684
0.00041833249 0 8.2530354e-05 80643.154
0.00042082999 0 8.2530656e-05 79927.437
0.00042332748 0 8.2530503e-05 79269.923
0.00042582497 0 8.2530082e-05 78654.281
0.00042832246 0 8.2529667e-05 78072.506
0.00043081996 0 8.2529371e-05 77519.345
0.00043331745 0 8.2529158e-05 76990.82
0.00043581494 0 8.2528959e-05 76484.282
0.00043831244 0 8.2528747e-05 75998.32
0.00044080993 0 8.252853e-05 75532.236
0.00044330742 0 8.2528323e-05 75085.531
0.00044580492 0 8.2528131e-05 74657.68
0.00044830241 0 8.252795e-05 74248.124
0.0004507999 0 8.2527778e-05 73856.326
0.0004532974 0 8.2527612e-05 73481.775
0.00045579489 0 8.2527454e-05 73123.973
0.00045829238 0 8.2527303e-05 72782.418
0.00046078988 0 8.2527158e-05 72456.597
0.00046328737 0 8.2527019e-05 72145.995
0.00046578487 0 8.2526886e-05 71850.095
0.00046828236 0 8.2526758e-05 71568.382
0.00047077985 0 8.2526635e-05 71300.344
0.00047327735 0 8.2526517e-05 71045.474
0.00047577484 0 8.2526405e-05 70803.268
0.00047827234 0 8.2526297e-05 70573.236
0.00048076983 0 8.2526195e-05 70354.898
0.00048326733 0 8.2526097e-05 70147.799
0.00048576482 0 8.2526002e-05 69951.538
0.00048826231 0 8.2525911e-05 69766.048
0.00049075981 0 8.2525827e-05 69596.726
0.0004932573 0 8.2525747e-05 69563.035
0.0004957548 0 8.2525642e-05 69227.903
0.00049825229 0 8.2525668e-05 82174.425
2.5258005e-06 0 0.00014514657 0
2.5133363e-06 1.0116541e-22 0.00014751897 0
7.7422509e-05 0 0.00017250679 0
7.7422508e-05 0 0.00018250607 0
3.496979e-05 0 0.0001875052 0
6.2437508e-05 0 0.00018750893 0
0.00034410098 0 0.0001012495 64396.951
0.00034327526 0 0.00010374949 58632.427
0.00034208404 0 0.00010728764 73135.889
0.00034251449 0 0.00010603681 57530.41
0.00034155138 3.5338087e-23 0.00010874947 64146.162
0.00034068525 0 0.00011124945 59120.788
0.00033948894 0 0.00011453772 73337.125
0.00033995046 0 0.00011328659 57438.266
0.00033883321 3.5341194e-23 0.00011624943 62067.117
0.00033792088 0 0.00011874942 58956.917
0.00033681811 0 0.00012161233 71255.061
0.00033730306 -3.5307745e-23 0.000120363 57093.943
0.00033597559 0 0.00012374938 60584.776
0.00033456511 0 0.00012725528 73282.48
0.00033507388 0 0.00012600187 58050.41
0.00033393823 5.939879e-22 0.00012874936 63754.677
0.00033291078 0 0.00013124934 59174.417
0.00033174225 0 0.00013400489 69861.598
0.00033227621 -3.5304585e-23 0.0001327548 57018.142
0.00033077016 0 0.00013624931 60295.098
0.00032938329 0 0.00013936356 72360.263
0.00032994535 -3.5322485e-23 0.00013811222 57599.407
0.00032851961 0 0.00014124927 61261.22
0.00032697183 0 0.00014457352 72336.733
0.0003275586 -3.5334624e-23 0.00014332122 57933.868
0.00032617082 0 0.00014624923 62175.647
0.00032451163 0 0.00014966698 72145.887
0.00032512316 0 0.00014841476 58172.556
0.00032372335 0 0.00015124919 62686.821
0.0003219984 0 0.00015465078 71734.864
0.00032263771 -3.5343357e-23 0.00015339959 58196.387
0.00032116641 0 0.00015624915 62392.659
0.00031942672 0 0.00015952739 70969.794
0.0003200951 0 0.00015827649 57853.462
0.000318493 0 0.00016124911 61464.602
0.00031679693 0 0.00016430971 69838.013
0.0003174941 0 0.00016305897 57258.71
0.00031570105 -3.5372522e-23 0.00016624906 60357.91
0.00031410919 0 0.00016901362 67204.496
0.0003148367 0 0.00016776146 56620.68
0.00031212056 0 0.00017238677 72653.651
0.00031285915 0 0.00017113795 59076.199
0.00031131224 -3.5378328e-23 0.00017374899 63817.422
0.00030935241 0 0.00017695293 69112.594
0.00031012179 -3.5342156e-23 0.00017570185 57602.005
0.0003200565 -3.5334541e-23 0.000175 138086.76
0.00032672432 0 0.00017500003 166587.7
0.00032995066 0 0.00017500007 176312.03
0.00033699985 0 0.00017500007 172255.3
0.00033841279 0 0.00017500121 146334.58
0.00034091027 0 0.00017500315 140974.25
0.00034340776 0 0.00017500395 138881.31
0.00034590525 0 0.00017500402 138286.84
0.00034840274 0 0.00017500388 138094.04
0.00035090023 0 0.0001750038 138002.64
0.00035339772 0 0.00017500379 137927.12
0.00035589521 0 0.00017500379 137846.68
0.0003583927 0 0.00017500378 137758.92
0.00036089019 0 0.00017500376 137664.52
0.00036338768 0 0.00017500374 137563.35
0.00036588517 0 0.00017500373 137454.48
0.00036838266 0 0.00017500371 137337.14
0.00037088015 0 0.0001750037 137211.67
0.00037337764 0 0.00017500366 137079.65
0.000308229 0 0.00017874894 60598.226
0.00030652617 0 0.00018145505 66596.486
0.0003073212 -3.5307817e-23 0.00018020278 56419.007
0.00030446765 0 0.0001846488 69387.09
0.00030527527 0 0.00018339847 58284.62
0.00030342104 -3.53885e-23 0.00018624887 61436.237
0.00030156116 0 0.00018905308 67026.137
0.00030239848 -3.5316491e-23 0.00018780082 56596.103
0.00029945919 0 0.00019214754 68826.279
0.00030031057 3.5364747e-23 0.00019089641 58360.494
0.00029835152 -3.5395385e-23 0.00019374879 61189.335
0.00029646612 0 0.00019645221 65882.555
0.00029734372 0 0.00019520139 56209.066
0.0002697299 0 0.00019999946 0
0.00029432711 0 0.00019947315 65956.869
0.00029521619 -3.5354117e-23 0.00019821848 57267.961
0.00037587513 0 0.00017500367 136945.78
0.00037837262 0 0.00017500366 136814.24
0.00038087011 0 0.00017500365 136690.33
0.00038336761 0 0.00017500363 136578.58
0.0003858651 0 0.00017500362 136482.21
0.00038836259 0 0.0001750036 136402.66
0.00039086008 0 0.00017500359 136339.53
0.00039335757 0 0.00017500358 136291.1
0.00039585506 0 0.00017500357 136254.76
0.00039835255 0 0.00017500356 136227.63
0.00040085005 0 0.00017500355 136207.02
0.00040334754 0 0.00017500354 136190.87
0.00040584503 0 0.00017500353 136177.73
0.00040834252 0 0.00017500352 136166.7
0.00041084002 0 0.00017500351 136157.23
0.00041333751 0 0.0001750035 136148.97
0.000415835 0 0.00017500349 136141.8
0.00041833249 0 0.00017500348 136135.75
0.00042082999 0 0.00017500347 136131.02
0.00042332748 0 0.00017500346 136127.99
0.00042582497 0 0.00017500345 136127.03
0.00042832246 0 0.00017500344 136128.58
0.00043081996 0 0.00017500344 136133.05
0.00043331745 0 0.00017500343 136140.91
0.00043581494 0 0.00017500342 136152.66
0.00043831244 0 0.00017500341 136168.89
0.00044080993 0 0.00017500341 136190.08
0.00044330742 0 0.0001750034 136216.47
0.00044580492 0 0.00017500339 136247.93
0.00044830241 0 0.00017500338 136283.94
0.0004507999 0 0.00017500338 136323.74
0.0004532974 0 0.00017500337 136366.47
0.00045579489 0 0.00017500336 136411.33
0.00045829238 0 0.00017500336 136457.61
0.00046078988 0 0.00017500335 136504.61
0.00046328737 0 0.00017500334 136551.7
0.00046578487 0 0.00017500334 136598.37
0.00046828236 0 0.00017500333 136644.43
0.00047077985 0 0.00017500332 136690
0.00047327735 0 0.00017500332 136735.43
0.00047577484 0 0.00017500331 136781.13
0.00047827234 0 0.0001750033 136827.27
0.00048076983 0 0.00017500329 136873.49
0.00048326733 0 0.00017500329 136918.44
0.00048576482 0 0.00017500328 136958.9
0.00048826231 0 0.00017500327 136989.45
0.00049075981 0 0.00017500327 137015.49
0.0004932573 0 0.00017500326 137242.94
0.0004957548 0 0.00017500321 136842.04
0.00049825229 0 0.00017500341 159098.04
7.7422882e-05 0 0.00020500101 0
6.2438518e-05 0 0.00021000035 0
4.9950005e-05 0 0.00021750934 0
4.995001e-05 0 0.00022500529 0
4.9950007e-05 0 0.00022997567 0
7.9920011e-05 0 0.00022750739 0
4.9950004e-05 0 0.00023241678 0
7.9920002e-05 0 0.00023003015 0
4.9950005e-05 0 0.00023497077 0
7.9920007e-05 0 0.00023252225 0
4.9950004e-05 0 0.00023747768 0
6.4935011e-05 0 0.00023500465 0
7.9920006e-05 0 0.00023746725 0
4.9950006e-05 0 0.00023752985 0
6.4935001e-05 0 0.00023753657 0
7.9920009e-05 0 0.00023997942 0
4.9950003e-05 0 0.00024001939 0
6.493502e-05 0 0.0002424864 0
7.9920004e-05 0 0.00024248741 0
4.9950002e-05 0 0.00024253367 0
6.4935017e-05 0 0.00024250608 0
7.9920006e-05 0 0.00024251391 0
4.9950005e-05 0 0.00024501886 0
6.4935013e-05 0 0.00024500476 0
7.9920009e-05 0 0.00024502001 0
4.9950009e-05 0 0.00024999442 0
7.9920001e-05 0 0.00024756556 0
7.9920009e-05 0 0.00025249474 0
4.9950006e-05 0 0.00025499059 0
0.00010739247 0 0.00025499853 0
0.00010739249 0 0.00025500523 0
0.00010739246 0 0.00025750173 0
0.00024936603 -3.5347411e-23 0.00025212475 65899.758
0.00024681986 0 0.00025458551 66633.396
0.00024811688 3.541585e-23 0.00025333362 59028.015
0.0002442471 0 0.00025702274 66526.67
0.00024557028 0 0.00025577098 58801.506
0.00024164774 0 0.00025943785 66587.337
0.00024299741 3.5400396e-23 0.00025818645 58217.651
0.00023902094 0 0.00026183138 66617.348
0.00024039768 0 0.00026058047 57778.805
0.0002363666 0 0.000264204 66276.591
0.00023777045 3.5368383e-23 0.00026295393 57173.152
0.00023368551 0 0.00026655728 65163.286
0.00023511621 0 0.00026530832 56824.703
0.00022972009 0 0.00026995792 74522.248
0.000231021 0 0.00026885284 63245.813
0.00023243449 3.5318389e-23 0.00026764428 56400.871
0.00022698285 0 0.00027225891 68297.55
0.00022847536 0 0.00027100521 61143.916
0.00022421078 0 0.00027453855 66766.536
0.00022573182 0 0.00027328598 59012.963
0.00022141353 0 0.00027680351 66465.469
0.00022295958 0 0.00027555212 57581.453
0.00021858752 0 0.00027905453 64355.939
0.00022016292 3.5354387e-23 0.00027780521 56543.499
0.0002144738 0 0.00028226147 68510.495
0.00021603616 0 0.00028104827 61178.298
0.00021733565 0 0.00028004175 56018.708
0.0002115792 0 0.00028446331 67021.101
0.00021322328 0 0.00028321096 58660.316
0.00020865702 0 0.00028665385 65001.351
0.00021032787 -2.4639675e-20 0.00028540331 56901.07
0.00020444382 0 0.00028974649 68526.698
0.00020604627 0 0.00028857562 60997.142
0.00020740503 0 0.00028758329 56042.256
0.00020144721 0 0.00029189316 67014.726
0.00020319384 3.5448499e-23 0.00029064127 58246.404
0.00019715612 0 0.00029489905 71701.201
0.00019855387 0 0.00029393097 62656.834
0.00020019475 0 0.00029277904 56474.644
0.00019408823 0 0.0002970106 67299.386
0.00019591109 0 0.00029575686 59165.582
0.00018970747 0 0.00029993268 72105.496
0.00019106147 0 0.0002990415 63051.143
0.00019283472 -3.5389445e-23 0.00029785547 56816.349
0.00029216843 0 0.00020244624 69015.584
0.00029307683 0 0.00020119853 58576.021
0.00029121895 3.5404514e-23 0.00020374868 61025.887
0.00028906546 0 0.00020664136 63917.437
0.00029000188 0 0.00020539035 55380.033
0.00028686787 0 0.00020954886 64812.977
0.00028781535 3.5366912e-23 0.00020829432 56617.938
0.00028465211 0 0.00021241866 70767.078
0.0002856179 -3.5404492e-23 0.00021116988 58872.144
0.00028361841 0 0.00021374856 61812.177
0.00028143151 0 0.00021651457 64721.816
0.00028242746 0 0.00021526441 55678.661
0.00027917148 0 0.00021932332 65522.367
0.00028018123 -3.5351106e-23 0.00021807156 56378.318
0.00027689735 0 0.00022210594 65672.971
0.00027792133 0 0.00022085204 57684.748
0.00027460505 0 0.00022485665 69693.207
0.00027564743 0 0.00022360537 59386.788
0.00027342745 0 0.00022624839 61386.373
0.00027122002 0 0.00022883061 63359.592
0.0002722975 3.5302112e-23 0.00022758158 55562.941
0.00026887452 0 0.00023152455 64741.307
0.00026996994 -3.5324398e-23 0.00023027513 55897.406
0.00026651098 0 0.00023419208 65233.043
0.00026762459 0 0.00023294154 56283.11
0.00026412773 0 0.00023683269 65036.298
0.00026526106 0 0.00023558156 56580.201
0.00026172398 0 0.00023944635 64545.905
0.00026287794 -3.5378953e-23 0.00023819475 56985.609
0.00025929892 0 0.00024203345 64035.365
0.00026047438 0 0.00024078166 57153.431
0.0002568518 0 0.00024459475 63533.67
0.00025804973 -3.5403329e-23 0.0002433428 57340.383
0.00025438106 0 0.0002471299 63211.647
0.00025560262 3.5411326e-23 0.0002458779 57448.095
0.00025188616 0 0.00024963978 64112.319
0.00025313209 0 0.00024838775 57827.908
0.00025063705 0 0.00025087269 58564.806
0.00039711973 0 0.00023266938 197534.55
0.00039462297 0 0.00023751356 166294.97
0.00012183144 0 0.00033478997 72374.819
0.00012363045 0 0.00033407779 60122.022
0.00011470621 0 0.00033743594 73912.238
0.00011613823 0 0.0003368976 64450.327
0.00011863563 0 0.0003359946 58690.074
0.00012058197 0 0.00033526705 56796.903
0.00010864603 0 0.00033955505 67192.67
0.00011114343 0 0.00033868259 58935.324
0.00011345737 0 0.00033787956 57326.269
9.9840927e-05 0 0.00034248153 75418.313
0.00010115389 0 0.00034203881 66684.395
0.00010365127 0 0.00034120898 58742.092
0.00010614865 0 0.00034041262 57595.841
0.00010739358 1.7646697e-23 0.00034000037 57181.308
9.1995272e-05 0 0.00034487927 75730.345
9.36618e-05 0 0.00034435553 63910.881
9.6159156e-05 0 0.0003435847 58500.707
9.8598761e-05 -1.785977e-23 0.00034286622 57735.952
8.3737806e-05 0 0.00034716969 69822.637
8.6169783e-05 0 0.0003464656 59852.551
8.8667113e-05 0 0.00034580191 58128.918
9.0754507e-05 1.7810226e-23 0.00034524013 57725.401
7.3683305e-05 0 0.00034967926 69729.429
7.6180574e-05 0 0.00034902405 59980.561
7.8677857e-05 0 0.00034840991 57514.608
8.1175154e-05 0 0.00034785708 58043.744
8.2486954e-05 0 0.00034751899 57913.159
6.1290347e-05 0 0.00035225077 70068.784
6.3694412e-05 0 0.00035170522 60195.939
6.6191604e-05 0 0.00035116894 56492.496
6.8688818e-05 0 0.00035070323 56616.163
7.1186053e-05 0 0.00035026527 58197.706
7.2434925e-05 -8.8241643e-24 0.00035000181 58473.222
4.4570597e-05 2.7958916e-21 0.00035494397 74256.572
4.6215e-05 0 0.00035466045 65206.263
4.8711923e-05 0 0.00035422397 58283.058
5.1208902e-05 0 0.00035381364 55312.201
5.370593e-05 0 0.00035345614 55027.313
5.6203e-05 0 0.00035310869 56099.528
5.8700106e-05 0 0.00035275932 57498.091
6.0037811e-05 -8.8376266e-24 0.00035252034 57647.124
1.665e-06 0 0.0003571306 42744.778
2.8717596e-06 0 0.0003574736 56733.613
8.8534119e-06 0 0.00035744786 61272.301
1.1285e-05 0 0.0003573741 60552.547
1.3774091e-05 0 0.00035731358 60902.221
1.6265769e-05 0 0.00035723896 60950.998
1.8759e-05 0 0.00035713427 60178.476
2.1253235e-05 0 0.00035701408 59298.451
2.3748158e-05 0 0.00035687399 58276.131
2.6243571e-05 0 0.000356694 56674.796
2.8739348e-05 0 0.00035648368 55044.033
3.12354e-05 0 0.00035627563 54212.483
3.3731667e-05 0 0.00035607969 54220.889
3.6228103e-05 0 0.00035585666 54231.053
3.8724677e-05 0 0.00035560555 55234.785
4.1221364e-05 0 0.000355368 56339.191
4.3349213e-05 1.0487448e-22 0.00035512117 56737.026
4.1106892e-06 0 0.00035756531 53290.137
6.327e-06 0 0.00035752687 54168.817
0.00011988232 0 0.00036250082 170094.42
1.4985158e-05 1.8163632e-19 0.00037001627 174301.58
4.9950185e-06 -4.1566314e-19 0.00038260425 219302.18
4.9949571e-06 7.0356529e-24 0.00038747956 230560.57
4.9950151e-06 0 0.00038741588 222984.05
2.7469184e-05 -6.2791143e-23 0.00038999968 205410.36
1.7488322e-05 -2.8125612e-23 0.00039249952 214808.61
3.7462611e-05 0 0.00039249836 206599.76
4.9956522e-06 5.6108951e-23 0.00039498464 224365.41
1.2487431e-05 -1.8172915e-22 0.00039499462 224153.72
1.7488471e-05 0 0.00039250066 214766.77
2.2474187e-05 0 0.00039250005 216093.77
9.9829538e-06 0 0.00039500033 222629
1.4984774e-05 0 0.000399994 221861.91
2.2473216e-05 0 0.00039999995 216480.14
0.00018655142 0 0.00030200453 64473.268
0.00018846318 0 0.00030075038 58598.97
0.0001820708 0 0.0003048465 65491.513
0.00018356908 0 0.00030390913 59098.455
0.00018529793 -3.5384942e-23 0.00030281022 55783.404
0.00017880302 0 0.00030687301 63377.663
0.00018082449 0 0.00030562027 56279.717
0.00017421077 0 0.00030963677 66451.226
0.0001760767 0 0.00030852259 58150.878
0.00017754967 -3.5338176e-23 0.00030763849 54929.334
0.00016955274 0 0.00031234243 68607.478
0.00017108179 0 0.00031146699 60214.842
0.00017296044 0 0.00031037125 55762.314
0.00016482658 0 0.00031499541 73130.962
0.00016608688 0 0.00031429508 63638.965
0.00016830432 0 0.00031304821 56850.3
0.0001612595 0 0.00031692106 65702.003
0.00016358024 -1.7780248e-23 0.00031567031 58031.064
0.00015634436 0 0.00031948859 67029.455
0.00015859453 0 0.0003183274 58499.943
0.0001600069 1.766492e-23 0.00031758866 55635.627
0.00015132835 0 0.00032199937 67105.977
0.00015359963 0 0.00032087642 58518.444
0.00015509284 -1.7674704e-23 0.00032012595 55772.096
0.00014619948 0 0.00032445716 65925.15
0.00014860475 0 0.0003233196 58270.023
0.00015007615 1.7673098e-23 0.00032261019 55737.112
0.0001396969 0 0.00032742815 72117.832
0.00014111243 0 0.0003267879 62780.225
0.00014360987 0 0.0003256606 57829.492
0.00014494754 0 0.00032504321 55987.575
0.00013430616 0 0.00032976304 70908.47
0.00013611757 0 0.00032898202 60079.518
0.00013844722 1.7784422e-23 0.00032797405 57105.935
0.0001287673 0 0.0003320526 65642.231
0.00013112271 0 0.00033109397 58093.719
0.00013305575 0 0.00033028948 56180.852
0.00012612787 0 0.00033311376 57007.397
0.00012751588 0 0.00033255771 55847.168
0.00014484894 0 0.00039000012 205719.97
0.00014735439 0 0.0003975039 166557.89
0.0003496508 7.058624e-23 0.00037750183 166176.07
0.0003047303 3.5297128e-23 0.00038500024 200136.51
0.00049696643 0 0.00035490766 149484.05
0.0004994615 0 0.00035480525 157989.35
0.0004969882 0 0.00035501224 137739.52
0.00049946687 7.0590761e-23 0.00035502244 196857.33
0.00047482913 0 0.00035993868 157348.13
0.00048446545 0 0.00035778202 160477.38
0.000484563 -7.0593071e-23 0.00035797914 161650.75
0.0004507999 0 0.00036002155 159289.45
0.00045257337 0 0.00036000488 165902.69
0.00046472367 0 0.00036245944 158621.27
0.00047479152 0 0.00036003805 170765.31
0.0004770308 0 0.00036000689 145762.6
0.00048452995 0 0.00036001987 146118.91
0.00042957344 0 0.00036250133 160278.93
0.00046494386 7.0648132e-23 0.00036256038 171669.96
0.00046703942 -6.5724259e-18 0.00036250589 149111.68
0.00043704878 0 0.00037248362 153531.99
0.00043903052 0 0.00037245466 177043.35
0.00044688584 0 0.00037244309 168883.91
0.00044706668 0 0.00037248545 155504.83
0.00040943621 0 0.00037481326 159716.27
0.0004096962 0 0.00037485373 159935.29
0.00042707225 0 0.00037499974 154115.79
0.00042729218 0 0.00037498099 185457.9
0.00043705441 0 0.00037250909 156713.88
0.00043940761 0 0.00037252424 185334.3
0.00043957476 0 0.00037250615 169621.12
0.00044682817 0 0.00037259648 170892.71
0.00044708937 -7.0591899e-23 0.0003725389 160118.28
0.00038700438 0 0.00037740023 158480.18
0.00038718958 0 0.0003774233 157708.41
0.00040948887 0 0.00037509167 159474.71
0.00040967791 0 0.00037508633 160276.29
0.00042703693 0 0.00037505018 158629.22
0.0004273389 -7.0630073e-23 0.00037510428 170580.71
0.00047077985 0 0.00037500163 160461.35
0.00047327735 0 0.00037500159 153644.19
0.00047577484 0 0.00037500141 151670.38
0.00047827234 0 0.00037500128 152463.51
0.00048076983 0 0.00037500106 153935.37
0.00048326733 0 0.00037500095 155092.93
0.00048576482 0 0.00037500095 155615.1
0.00048826231 0 0.00037500101 155712.18
0.00049075981 0 0.00037500096 155617.17
0.0004932573 0 0.00037500092 155512.68
0.0004957548 0 0.00037500091 154941.23
0.00049825229 0 0.00037500102 177934.02
0.00037709754 0 0.00037775333 184563
0.00037714604 -7.0590485e-23 0.000378526 177915.62
0.00038700546 0 0.00037760159 160613.8
0.00038720141 0 0.00037759083 160397.55
0.00037714113 -7.0589565e-23 0.00038002179 156992
0.00040701086 0 0.00038489457 161145.67
0.00040717759 0 0.0003848974 161392.33
0.00040703961 0 0.00038505361 159971.88
0.0004071617 0 0.00038506635 160814.15
0.00048448242 0 0.00038996627 160265.83
0.00048495531 0 0.00038997831 187008.36
0.0004844921 0 0.0003900239 159250.01
0.00048638544 0 0.00039001794 182912.14
0.00048701778 0 0.00039000403 156753.42
0.00042207517 0 0.00039750165 160339.33
3.4954758e-05 0 0.00040249988 210344.99
3.2492273e-05 4.4149926e-24 0.00040250521 200627.12
7.4926624e-05 0 0.00040750056 181281.63
3.2466872e-05 0 0.00041250194 195737.28
6.743705e-05 8.8238551e-24 0.00041750034 200966.01
1.998036e-05 1.1029273e-23 0.00042000303 215317.06
3.2467983e-05 0 0.00042000247 202792.02
5.7442566e-05 0 0.00042250151 204752.65
3.2474432e-05 -4.4125716e-24 0.00043250178 200619.12
0.00011488428 0 0.00043250114 165399.94
3.7466124e-05 2.5466504e-19 0.00044000007 212853.5
0.00010239844 0 0.00044000063 166701.29
0.00011238872 1.7646711e-23 0.00044250012 199348.99
4.9952807e-05 0 0.00044750107 187206.23
6.9911182e-05 0 0.00046250102 202544.15
7.2404718e-05 0 0.00046250051 204964.34
7.247603e-05 -8.8291666e-24 0.00046250018 205567.11
7.9922798e-05 0 0.00046250163 171705.25
3.4965168e-05 -4.4116511e-24 0.00046750241 211902.97
4.9953983e-05 -8.8239633e-24 0.00046750826 182394.39
8.9916232e-05 1.7647743e-23 0.00046750111 192211.94
1.7482537e-05 0 0.00047249407 228702.63
2.2474827e-05 0 0.00047249968 217659.07
5.0088879e-06 -1.2661806e-23 0.00047250417 222062.68
2.2474638e-05 0 0.00047250011 223061.49
2.4978532e-05 -4.4122537e-24 0.00047250031 218602.52
0.0001123883 1.7646646e-23 0.0004725001 197923.15
1.7482988e-05 2.2058765e-24 0.00047500387 221937.81
7.2427533e-05 -8.8232639e-24 0.0004750175 206882.32
9.7401761e-05 0 0.00047500011 194853.33
0.00010240044 0 0.00047749953 193690.03
5.4946501e-05 0 0.00047999997 208053.03
7.2427506e-05 0 0.00047753217 206488.59
9.9890751e-05 3.3686572e-19 0.00047750705 165816.71
0.0001023989 0 0.00047750004 206561.75
5.2447356e-05 0 0.00048249849 202605.35
5.9938811e-05 0 0.00048000005 204495.49
7.2427513e-05 0 0.00048249341 207103.76
0.00011238887 1.7646735e-23 0.00048000003 205031.33
0.00011987858 0 0.00048000003 205541.54
0.00012240352 -1.7650271e-23 0.00048000013 206437.75
1.9982633e-05 6.9460403e-21 0.00048499072 212119.68
4.4652597e-05 0 0.00048250005 204690.23
4.4966603e-05 -8.8776405e-20 0.00048250317 193811.93
4.7458748e-05 0 0.00048250178 192149.99
5.2439309e-05 0 0.00048250381 181607.35
5.4946852e-05 0 0.00048250059 187988.08
5.7448882e-05 0 0.00048250274 181128.95
7.2427509e-05 0 0.00048507079 204831.9
7.2427506e-05 -2.8000962e-16 0.00049017298 201785.87
6.2438013e-05 0 0.00049250104 177320.09
0.00010989012 -1.7646539e-23 0.00049250101 198463.9
0.00011987921 0 0.00049499925 164237.89
0.00012237804 0 0.00049499988 189412.04
7.2427545e-05 0 0.00049747519 205000.76
9.7405832e-05 -1.7647123e-23 0.00049500201 167100.59
0.00011738205 0 0.00049749878 178220.58
0.000119878 -1.8795219e-20 0.00049747511 199878.2
0.00011988408 0 0.00049748745 181214.3
0.00012237872 0 0.00049500778 194821.88
0.0001973026 3.5293057e-23 0.00041253137 198539.81
0.00020978945 0 0.00041999933 155082.04
0.00021222028 0 0.00041997646 169799.62
0.00020978929 0 0.00042000074 156106.11
0.00021226815 0 0.00042000691 171751.36
0.00021977564 0 0.00042249554 155733.87
0.00021980041 0 0.00042248599 157562.22
0.00022976906 0 0.00042249873 156954.83
0.00024475436 0 0.00042249978 172344.62
0.00024476616 0 0.00042248974 156436.95
0.00021976605 0 0.00042251975 158849.46
0.00021980813 0 0.00042252715 158684.65
0.00022975346 0 0.0004249439 177026.48
0.00022977446 0 0.0004249392 196928.17
0.00024224294 0 0.00042497474 160162.6
0.00024474344 0 0.00042495604 179978.19
0.00024475662 0 0.00042330471 182616.4
0.00022975653 0 0.00042501158 159330.97
0.00022977736 3.5294169e-23 0.00042500715 159125.72
0.00020479573 0 0.00043533648 191552.2
0.00022976971 0 0.00043749979 160533.12
0.00022727092 0 0.00043750006 205458.64
0.00023226663 0 0.00043750032 174696.93
0.00015484324 2.810819e-18 0.00044250254 161099.69
0.00013736228 0 0.0004500008 181942.53
0.00023476467 0 0.00045749984 166842.9
0.00022227665 0 0.00045750062 159903.08
0.00023226611 0 0.00045750255 164952.17
0.00023476329 0 0.00045750069 172597.88
0.00023725872 0 0.00045750124 177999.5
0.00023974233 0 0.0004575004 206400.08
0.00015484467 0 0.00046500049 161759.56
0.00016982604 0 0.00046500017 203450.22
0.00022477503 0 0.0004650074 208479.65
0.0001798248 0 0.00047000047 197478.12
0.00022477502 3.5293043e-23 0.00047048863 190942.06
0.00022477507 0 0.00047491903 205905.68
0.00016483987 0 0.00047749907 188839.4
0.00022477502 0 0.00047502661 208663.73
0.0001573419 0 0.00047750036 162862.11
0.00022477502 0 0.00047765909 202067.77
0.00022477506 0 0.00048242287 205603.31
0.00024475465 0 0.00048249983 169382.53
0.00021478458 0 0.00048250155 182017.55
0.00024225718 0 0.00048499899 178328.87
0.00024468626 0 0.0004849883 190303.2
0.00024474792 0 0.00048500135 191258.89
0.00020479431 0 0.00048750088 160388.68
0.00014485646 0 0.00049000014 201175.73
0.00014736175 -1.7647627e-23 0.00049000147 194113.88
0.00012487678 1.7646771e-23 0.00049500329 169360.19
0.00034465522 0 0.00041258921 202552.96
0.00035214789 0 0.00041267304 196537.06
0.00026473477 0 0.00042249969 157924.53
0.00034215804 0 0.00042000081 160065.68
0.00026472606 0 0.0004249382 190574.15
0.00026474551 0 0.00042495611 182356.96
0.00027221393 0 0.00042498605 158414.69
0.0002722425 0 0.00042498581 158657.57
0.00032093037 0 0.00042250015 178148.29
0.00032342786 0 0.00042250022 176813.67
0.00032592534 0 0.00042250018 177165.73
0.00032804027 0 0.00042250016 180421.22
0.00033174186 0 0.00042250017 190607.77
0.00033447739 0 0.00042250025 200081.29
0.0003348091 0 0.00042250104 201836.41
0.0003371771 0 0.00042250047 206457.06
0.00036712251 0 0.00042497531 169539.42
0.00036716021 0 0.00042495945 160019.55
0.00026472582 0 0.00042500961 159408.26
0.00026474425 3.5294273e-23 0.00042500802 159268.96
0.00027221347 0 0.00042501664 159605.96
0.00027224511 0 0.00042501761 159424.81
0.00036712473 0 0.00042500762 157804.65
0.00036714636 7.0588743e-23 0.00042501046 159019.98
0.00028469624 0 0.00042998903 161096.82
0.00028472241 0 0.00042999284 159101.77
0.00026473452 0 0.00043249964 160012.72
0.00028469162 0 0.00043001587 161341.14
0.0002847247 3.5294242e-23 0.0004300096 159655.71
0.00029720216 0 0.00043249963 159668.81
0.00029966793 0 0.00043249433 190010.24
0.00031218714 0 0.00043249973 160171.12
0.0003146617 0 0.00043249686 194890.61
0.00031468894 0 0.00043249579 160167.38
0.00035217873 0 0.00043246419 160222.42
0.00036965604 0 0.00043248703 166091.08
0.00026223654 0 0.00043499905 159947.74
0.00029719951 0 0.00043250319 160216.56
0.00029966076 0 0.00043250838 187244.18
0.00029970337 0 0.00043250262 160915.11
0.00031466072 0 0.00043250821 177199.05
0.00031468865 0 0.00043250354 159715.79
0.00035211422 0 0.00043258648 173699.55
0.00035224494 -7.0605602e-23 0.00043268642 168779.76
0.00036966308 0 0.00043250983 180018.87
0.00032467479 0 0.00043749961 165254.75
0.00033716214 0 0.00043749953 160837.7
0.00032467338 0 0.00043998984 194070.94
0.00032468101 0 0.00043997143 188728.26
0.0003371598 0 0.00043999711 160668.43
0.00033716767 0 0.00043999402 160591.43
0.00036964085 0 0.00043998437 161883.7
0.00033716483 -3.5293284e-23 0.00044000278 160834.35
0.00034714786 0 0.00044248975 170870.15
0.00036962674 0 0.0004400026 161662.78
0.00036965205 0 0.00044002028 161755.55
0.0002922045 0 0.00044250721 170954.75
0.00034714965 0 0.00044250328 161405.9
0.00034715462 0 0.00044250377 165574.98
0.0003546404 0 0.00044499377 161487.79
0.00035466107 0 0.00044499457 178299.89
0.00034715232 0 0.00044749871 197232.43
0.00035463783 0 0.00044501914 175999.39
0.00035466289 -9.7304546e-22 0.00044501989 161859.97
0.00035963752 0 0.00044500211 161433.76
0.00036213447 0 0.00044749381 169030.48
0.00036214522 0 0.00044749124 161397.57
0.00030469926 0 0.00044999803 170326.78
0.00031963014 0 0.00044998054 174170.66
0.00031969243 0 0.00044998779 161342.51
0.00033965979 0 0.00044999974 161176.3
0.00034715225 0 0.00044999953 167246.11
0.00034716759 0 0.00044999236 169062.1
0.00036214051 0 0.00044750284 161194.59
0.00029468649 -6.5364991e-22 0.0004524757 161321.63
0.00029472659 0 0.00045247389 161534.08
0.00030469365 0 0.00045000135 161070.54
0.00030474434 -3.5298754e-23 0.00045002155 172226.6
0.00031957248 0 0.00045230384 170044.37
0.00031968605 0 0.00045235504 200669.55
0.00033965086 0 0.00045248035 170316.37
0.00033966716 0 0.0004524638 189697.2
0.00034715084 0 0.00045000204 161627.21
0.00034718951 -3.5296802e-23 0.00045000604 193549.18
0.00027222838 3.5293153e-23 0.00045250207 171787.72
0.00029469159 0 0.00045251388 161082.41
0.00029472034 -3.5294876e-23 0.00045251492 161280.68
0.00031218352 0 0.00045250465 161428.29