# interfaceEnergyFluxGas  FACE_DATA 1070
# x  y  z  interfaceEnergyFluxGas
2.502565e-06 0 9.002427e-05 9.0914751e-09
4.1881811e-07 3.3087225e-24 9.2625861e-05 9.8001968e-09
2.5785832e-06 -8.1679853e-22 9.2587027e-05 8.5773941e-09
0.00035981791 0 1.2500243e-06 -1.9504089e-09
0.0003598728 0 3.7500027e-06 -1.0165821e-09
0.0003598178 0 6.2499698e-06 -1.0448085e-09
0.00035976385 7.059192e-23 8.7499655e-06 -2.0592394e-09
0.00035970751 0 1.124996e-05 -3.1873497e-09
0.00035961352 0 1.426604e-05 -1.8271766e-09
0.00035965701 -4.1971651e-21 1.3007153e-05 -3.4680631e-09
0.0003595358 7.0596914e-23 1.6249936e-05 -1.919095e-09
0.00035940628 7.060036e-23 1.8749916e-05 -1.8977712e-09
0.00035924553 0 2.1249902e-05 -1.4052559e-09
0.00035906863 7.0603361e-23 2.3749898e-05 -1.5151867e-09
0.00035889423 7.0604592e-23 2.6249891e-05 -1.7077203e-09
0.00035869137 0 2.8749879e-05 -2.2951852e-09
0.00035847038 0 3.1249868e-05 -2.7485351e-09
0.00035824179 -7.061084e-23 3.3749854e-05 -2.8824709e-09
0.00035796761 -7.0612335e-23 3.6249845e-05 -2.1737737e-09
0.0003577002 7.0613198e-23 3.874984e-05 -1.0062901e-09
0.00035741733 0 4.1249809e-05 -1.0095372e-09
0.00035700064 0 4.4078543e-05 -1.2715551e-09
0.00035719291 0 4.2832469e-05 -2.8272157e-09
0.00035665564 -7.0624108e-23 4.6249776e-05 -1.4789329e-09
0.0003562764 0 4.8749785e-05 -8.0195313e-10
0.00035592211 0 5.1249797e-05 2.8566548e-10
0.00035556996 0 5.3749798e-05 4.9429967e-10
0.00035521421 0 5.6249766e-05 -1.1140138e-09
0.00035458586 0 5.9706685e-05 -8.2155365e-10
0.00035483414 0 5.8473919e-05 -1.1792717e-09
0.00035423417 7.0639227e-23 6.1249686e-05 -8.511191e-10
0.00035370821 0 6.3749711e-05 -1.1158076e-09
0.00035325401 0 6.6249752e-05 -1.9921071e-09
0.00035284297 -7.0629949e-23 6.8749741e-05 -1.7204856e-09
0.00035212102 0 7.2383469e-05 -1.014851e-09
0.00035239766 7.0636175e-23 7.1162335e-05 -1.8524025e-09
0.00035174646 -7.0650177e-23 7.3749622e-05 -6.919609e-10
0.00035109424 -7.0647463e-23 7.6249638e-05 9.1992107e-11
0.00035052777 7.0641416e-23 7.8749673e-05 -2.9732449e-10
0.00034999283 0 8.124964e-05 -1.6660659e-10
0.00034930414 0 8.3766935e-05 -4.7058775e-10
0.00034965714 0 8.2525693e-05 -1.6406915e-10
0.00034858043 3.5327564e-23 8.6249592e-05 -1.1697602e-09
0.000347932 3.5327681e-23 8.8749591e-05 -1.5482832e-09
0.00034700559 0 9.2006421e-05 -8.9324633e-10
0.00034737546 -3.5315687e-23 9.0761919e-05 -2.4618621e-09
0.00034645205 0 9.3749544e-05 -1.085379e-09
0.00034569488 0 9.6249538e-05 -4.0118424e-10
0.00034459506 0 9.9813514e-05 -5.3208769e-10
0.00034499378 0 9.8566122e-05 -6.2636971e-10
0.00039835255 0 8.2511373e-05 0
0.00040085005 0 8.2528848e-05 0
0.00040334754 0 8.2538361e-05 0
0.00040584503 0 8.253994e-05 0
0.00040834252 0 8.2536724e-05 0
0.00041084002 0 8.2532716e-05 0
0.00041333751 0 8.2530371e-05 0
0.000415835 0 8.2529927e-05 0
0.00041833249 0 8.2530354e-05 0
0.00042082999 0 8.2530656e-05 0
0.00042332748 0 8.2530503e-05 0
0.00042582497 0 8.2530082e-05 0
0.00042832246 0 8.2529667e-05 0
0.00043081996 0 8.2529371e-05 0
0.00043331745 0 8.2529158e-05 0
0.00043581494 0 8.2528959e-05 0
0.00043831244 0 8.2528747e-05 0
0.00044080993 0 8.252853e-05 0
0.00044330742 0 8.2528323e-05 0
0.00044580492 0 8.2528131e-05 0
0.00044830241 0 8.252795e-05 0
0.0004507999 0 8.2527778e-05 0
0.0004532974 0 8.2527612e-05 0
0.00045579489 0 8.2527454e-05 0
0.00045829238 0 8.2527303e-05 0
0.00046078988 0 8.2527158e-05 0
0.00046328737 0 8.2527019e-05 0
0.00046578487 0 8.2526886e-05 0
0.00046828236 0 8.2526758e-05 0
0.00047077985 0 8.2526635e-05 0
0.00047327735 0 8.2526517e-05 0
0.00047577484 0 8.2526405e-05 0
0.00047827234 0 8.2526297e-05 0
0.00048076983 0 8.2526195e-05 0
0.00048326733 0 8.2526097e-05 0
0.00048576482 0 8.2526002e-05 0
0.00048826231 0 8.2525911e-05 0
0.00049075981 0 8.2525827e-05 0
0.0004932573 0 8.2525747e-05 0
0.0004957548 0 8.2525642e-05 0
0.00049825229 0 8.2525668e-05 0
2.5258005e-06 0 0.00014514657 4.8585895e-09
2.5133363e-06 1.0116541e-22 0.00014751897 3.7009278e-09
7.7422509e-05 0 0.00017250679 -1.35933e-08
7.7422508e-05 0 0.00018250607 -1.288882e-08
3.496979e-05 0 0.0001875052 -8.5216197e-09
6.2437508e-05 0 0.00018750893 -1.6287184e-08
0.00034410098 0 0.0001012495 -6.2625277e-10
0.00034327526 0 0.00010374949 -5.77227e-10
0.00034208404 0 0.00010728764 -6.5128179e-10
0.00034251449 0 0.00010603681 -8.3996146e-10
0.00034155138 3.5338087e-23 0.00010874947 -8.8409594e-10
0.00034068525 0 0.00011124945 -1.2070403e-09
0.00033948894 0 0.00011453772 -1.1443537e-09
0.00033995046 0 0.00011328659 -2.2190006e-09
0.00033883321 3.5341194e-23 0.00011624943 -9.1577758e-10
0.00033792088 0 0.00011874942 -2.0364052e-10
0.00033681811 0 0.00012161233 -3.6899032e-10
0.00033730306 -3.5307745e-23 0.000120363 2.453901e-10
0.00033597559 0 0.00012374938 -4.7585087e-10
0.00033456511 0 0.00012725528 -4.2940916e-10
0.00033507388 0 0.00012600187 -2.9319621e-10
0.00033393823 5.939879e-22 0.00012874936 -1.6351849e-10
0.00033291078 0 0.00013124934 4.3084194e-10
0.00033174225 0 0.00013400489 4.1080296e-10
0.00033227621 -3.5304585e-23 0.0001327548 8.5337807e-10
0.00033077016 0 0.00013624931 2.3924526e-10
0.00032938329 0 0.00013936356 -7.5466789e-10
0.00032994535 -3.5322485e-23 0.00013811222 0
0.00032851961 0 0.00014124927 -4.3271035e-10
0.00032697183 0 0.00014457352 4.3106599e-10
0.0003275586 -3.5334624e-23 0.00014332122 0
0.00032617082 0 0.00014624923 8.8571526e-10
0.00032451163 0 0.00014966698 -8.371458e-10
0.00032512316 0 0.00014841476 3.2057959e-10
0.00032372335 0 0.00015124919 -1.874729e-09
0.0003219984 0 0.00015465078 -1.5820725e-09
0.00032263771 -3.5343357e-23 0.00015339959 -3.6790033e-09
0.00032116641 0 0.00015624915 -1.1694163e-09
0.00031942672 0 0.00015952739 -3.6473913e-10
0.0003200951 0 0.00015827649 -3.0731591e-10
0.000318493 0 0.00016124911 -7.6651217e-10
0.00031679693 0 0.00016430971 -1.2956242e-10
0.0003174941 0 0.00016305897 -8.8540612e-10
0.00031570105 -3.5372522e-23 0.00016624906 2.835028e-10
0.00031410919 0 0.00016901362 1.7398618e-10
0.0003148367 0 0.00016776146 1.3899515e-10
0.00031212056 0 0.00017238677 -2.6539693e-10
0.00031285915 0 0.00017113795 2.2725612e-11
0.00031131224 -3.5378328e-23 0.00017374899 -1.8732869e-10
0.00030935241 0 0.00017695293 -8.2814894e-10
0.00031012179 -3.5342156e-23 0.00017570185 -4.7760745e-10
0.0003200565 -3.5334541e-23 0.000175 0
0.00032672432 0 0.00017500003 0
0.00032995066 0 0.00017500007 0
0.00033699985 0 0.00017500007 0
0.00033841279 0 0.00017500121 0
0.00034091027 0 0.00017500315 0
0.00034340776 0 0.00017500395 0
0.00034590525 0 0.00017500402 0
0.00034840274 0 0.00017500388 0
0.00035090023 0 0.0001750038 0
0.00035339772 0 0.00017500379 0
0.00035589521 0 0.00017500379 0
0.0003583927 0 0.00017500378 0
0.00036089019 0 0.00017500376 0
0.00036338768 0 0.00017500374 0
0.00036588517 0 0.00017500373 0
0.00036838266 0 0.00017500371 0
0.00037088015 0 0.0001750037 0
0.00037337764 0 0.00017500366 0
0.000308229 0 0.00017874894 -5.2833804e-10
0.00030652617 0 0.00018145505 -9.1960568e-10
0.0003073212 -3.5307817e-23 0.00018020278 0
0.00030446765 0 0.0001846488 -9.8719244e-10
0.00030527527 0 0.00018339847 -1.3067146e-09
0.00030342104 -3.53885e-23 0.00018624887 -1.7522191e-09
0.00030156116 0 0.00018905308 -1.9201035e-09
0.00030239848 -3.5316491e-23 0.00018780082 -3.6191943e-09
0.00029945919 0 0.00019214754 -1.319768e-09
0.00030031057 3.5364747e-23 0.00019089641 -2.6165425e-09
0.00029835152 -3.5395385e-23 0.00019374879 -9.9222601e-10
0.00029646612 0 0.00019645221 -8.6655487e-11
0.00029734372 0 0.00019520139 -7.6531025e-10
0.0002697299 0 0.00019999946 -2.8751693e-09
0.00029432711 0 0.00019947315 -7.3633372e-10
0.00029521619 -3.5354117e-23 0.00019821848 -8.3652738e-10
0.00037587513 0 0.00017500367 0
0.00037837262 0 0.00017500366 0
0.00038087011 0 0.00017500365 0
0.00038336761 0 0.00017500363 0
0.0003858651 0 0.00017500362 0
0.00038836259 0 0.0001750036 0
0.00039086008 0 0.00017500359 0
0.00039335757 0 0.00017500358 0
0.00039585506 0 0.00017500357 0
0.00039835255 0 0.00017500356 0
0.00040085005 0 0.00017500355 0
0.00040334754 0 0.00017500354 0
0.00040584503 0 0.00017500353 0
0.00040834252 0 0.00017500352 0
0.00041084002 0 0.00017500351 0
0.00041333751 0 0.0001750035 0
0.000415835 0 0.00017500349 0
0.00041833249 0 0.00017500348 0
0.00042082999 0 0.00017500347 0
0.00042332748 0 0.00017500346 0
0.00042582497 0 0.00017500345 0
0.00042832246 0 0.00017500344 0
0.00043081996 0 0.00017500344 0
0.00043331745 0 0.00017500343 0
0.00043581494 0 0.00017500342 0
0.00043831244 0 0.00017500341 0
0.00044080993 0 0.00017500341 0
0.00044330742 0 0.0001750034 0
0.00044580492 0 0.00017500339 0
0.00044830241 0 0.00017500338 0
0.0004507999 0 0.00017500338 0
0.0004532974 0 0.00017500337 0
0.00045579489 0 0.00017500336 0
0.00045829238 0 0.00017500336 0
0.00046078988 0 0.00017500335 0
0.00046328737 0 0.00017500334 0
0.00046578487 0 0.00017500334 0
0.00046828236 0 0.00017500333 0
0.00047077985 0 0.00017500332 0
0.00047327735 0 0.00017500332 0
0.00047577484 0 0.00017500331 0
0.00047827234 0 0.0001750033 0
0.00048076983 0 0.00017500329 0
0.00048326733 0 0.00017500329 0
0.00048576482 0 0.00017500328 0
0.00048826231 0 0.00017500327 0
0.00049075981 0 0.00017500327 0
0.0004932573 0 0.00017500326 0
0.0004957548 0 0.00017500321 0
0.00049825229 0 0.00017500341 0
7.7422882e-05 0 0.00020500101 -1.3836386e-08
6.2438518e-05 0 0.00021000035 -1.3398368e-08
4.9950005e-05 0 0.00021750934 -1.10442e-08
4.995001e-05 0 0.00022500529 -8.3669028e-09
4.9950007e-05 0 0.00022997567 -7.7395986e-09
7.9920011e-05 0 0.00022750739 -1.2493221e-08
4.9950004e-05 0 0.00023241678 -7.2514142e-09
7.9920002e-05 0 0.00023003015 -1.1587625e-08
4.9950005e-05 0 0.00023497077 -6.787107e-09
7.9920007e-05 0 0.00023252225 -1.1226936e-08
4.9950004e-05 0 0.00023747768 -6.9387606e-09
6.4935011e-05 0 0.00023500465 -8.9368678e-09
7.9920006e-05 0 0.00023746725 -1.0941608e-08
4.9950006e-05 0 0.00023752985 -6.8731929e-09
6.4935001e-05 0 0.00023753657 -8.5165551e-09
7.9920009e-05 0 0.00023997942 -1.0363963e-08
4.9950003e-05 0 0.00024001939 -6.6682822e-09
6.493502e-05 0 0.0002424864 -7.5118917e-09
7.9920004e-05 0 0.00024248741 -9.7482661e-09
4.9950002e-05 0 0.00024253367 -5.8727367e-09
6.4935017e-05 0 0.00024250608 -7.3274799e-09
7.9920006e-05 0 0.00024251391 -9.625239e-09
4.9950005e-05 0 0.00024501886 -5.1671994e-09
6.4935013e-05 0 0.00024500476 -7.1765328e-09
7.9920009e-05 0 0.00024502001 -9.2145359e-09
4.9950009e-05 0 0.00024999442 -4.345403e-09
7.9920001e-05 0 0.00024756556 -8.285753e-09
7.9920009e-05 0 0.00025249474 -6.1187979e-09
4.9950006e-05 0 0.00025499059 -3.4269659e-09
0.00010739247 0 0.00025499853 -8.7876176e-09
0.00010739249 0 0.00025500523 -8.735177e-09
0.00010739246 0 0.00025750173 -8.0395503e-09
0.00024936603 -3.5347411e-23 0.00025212475 3.0233735e-10
0.00024681986 0 0.00025458551 2.0806399e-11
0.00024811688 3.541585e-23 0.00025333362 -3.1259187e-10
0.0002442471 0 0.00025702274 1.2501178e-10
0.00024557028 0 0.00025577098 1.0539112e-10
0.00024164774 0 0.00025943785 1.3528766e-10
0.00024299741 3.5400396e-23 0.00025818645 4.5627239e-10
0.00023902094 0 0.00026183138 -2.9721408e-10
0.00024039768 0 0.00026058047 -7.7204817e-11
0.0002363666 0 0.000264204 2.972083e-10
0.00023777045 3.5368383e-23 0.00026295393 -6.8756218e-10
0.00023368551 0 0.00026655728 1.1039558e-09
0.00023511621 0 0.00026530832 1.2377284e-09
0.00022972009 0 0.00026995792 5.5288888e-10
0.000231021 0 0.00026885284 9.7323553e-10
0.00023243449 3.5318389e-23 0.00026764428 2.1540464e-09
0.00022698285 0 0.00027225891 1.0787298e-10
0.00022847536 0 0.00027100521 1.4643704e-10
0.00022421078 0 0.00027453855 1.6055863e-10
0.00022573182 0 0.00027328598 8.2499463e-10
0.00022141353 0 0.00027680351 -3.9895014e-10
0.00022295958 0 0.00027555212 2.1104351e-10
0.00021858752 0 0.00027905453 -1.2268093e-09
0.00022016292 3.5354387e-23 0.00027780521 -1.2908487e-09
0.0002144738 0 0.00028226147 -6.3247545e-10
0.00021603616 0 0.00028104827 -1.1812408e-09
0.00021733565 0 0.00028004175 -1.562875e-09
0.0002115792 0 0.00028446331 -5.9790365e-10
0.00021322328 0 0.00028321096 -1.3993426e-09
0.00020865702 0 0.00028665385 -9.1853714e-10
0.00021032787 -2.4639675e-20 0.00028540331 -6.5378948e-10
0.00020444382 0 0.00028974649 -9.3686361e-10
0.00020604627 0 0.00028857562 -1.6087876e-09
0.00020740503 0 0.00028758329 -2.2675906e-09
0.00020144721 0 0.00029189316 -1.1616843e-09
0.00020319384 3.5448499e-23 0.00029064127 -1.2495412e-09
0.00019715612 0 0.00029489905 -5.5967348e-10
0.00019855387 0 0.00029393097 -1.1182923e-09
0.00020019475 0 0.00029277904 -1.9393971e-09
0.00019408823 0 0.0002970106 -7.4866876e-10
0.00019591109 0 0.00029575686 -6.1775457e-10
0.00018970747 0 0.00029993268 -4.4025311e-10
0.00019106147 0 0.0002990415 -5.935794e-10
0.00019283472 -3.5389445e-23 0.00029785547 -6.8384703e-10
0.00029216843 0 0.00020244624 -9.8721444e-10
0.00029307683 0 0.00020119853 -1.4406275e-09
0.00029121895 3.5404514e-23 0.00020374868 -1.2898585e-09
0.00028906546 0 0.00020664136 -8.2772383e-10
0.00029000188 0 0.00020539035 -2.0393283e-09
0.00028686787 0 0.00020954886 -1.0714035e-09
0.00028781535 3.5366912e-23 0.00020829432 -1.2932019e-09
0.00028465211 0 0.00021241866 -7.9545098e-10
0.0002856179 -3.5404492e-23 0.00021116988 -1.2595675e-09
0.00028361841 0 0.00021374856 -7.6798902e-10
0.00028143151 0 0.00021651457 -7.3142733e-11
0.00028242746 0 0.00021526441 -6.3161463e-10
0.00027917148 0 0.00021932332 -4.2760796e-10
0.00028018123 -3.5351106e-23 0.00021807156 -6.9214992e-10
0.00027689735 0 0.00022210594 -6.8456703e-10
0.00027792133 0 0.00022085204 -6.5700047e-10
0.00027460505 0 0.00022485665 -8.7750055e-10
0.00027564743 0 0.00022360537 -1.0978439e-09
0.00027342745 0 0.00022624839 -1.2539233e-09
0.00027122002 0 0.00022883061 -6.0719348e-10
0.0002722975 3.5302112e-23 0.00022758158 -2.2841357e-09
0.00026887452 0 0.00023152455 -6.0946026e-10
0.00026996994 -3.5324398e-23 0.00023027513 -1.5878334e-11
0.00026651098 0 0.00023419208 -7.9272149e-10
0.00026762459 0 0.00023294154 -9.4449738e-11
0.00026412773 0 0.00023683269 -1.2853669e-09
0.00026526106 0 0.00023558156 -1.8468121e-09
0.00026172398 0 0.00023944635 -6.7745179e-10
0.00026287794 -3.5378953e-23 0.00023819475 -1.7545433e-09
0.00025929892 0 0.00024203345 1.2912087e-10
0.00026047438 0 0.00024078166 -2.3674451e-10
0.0002568518 0 0.00024459475 -5.0386871e-12
0.00025804973 -3.5403329e-23 0.0002433428 -2.9731549e-10
0.00025438106 0 0.0002471299 -3.0924174e-10
0.00025560262 3.5411326e-23 0.0002458779 -1.8525317e-10
0.00025188616 0 0.00024963978 -1.4151163e-10
0.00025313209 0 0.00024838775 -2.0908701e-10
0.00025063705 0 0.00025087269 -2.1292088e-10
0.00039711973 0 0.00023266938 0
0.00039462297 0 0.00023751356 0
0.00012183144 0 0.00033478997 2.6384993e-10
0.00012363045 0 0.00033407779 2.4981577e-10
0.00011470621 0 0.00033743594 1.1284263e-09
0.00011613823 0 0.0003368976 7.6631066e-10
0.00011863563 0 0.0003359946 -1.4691778e-10
0.00012058197 0 0.00033526705 -8.5149084e-10
0.00010864603 0 0.00033955505 1.0894353e-09
0.00011114343 0 0.00033868259 1.9499125e-09
0.00011345737 0 0.00033787956 1.6087267e-09
9.9840927e-05 0 0.00034248153 2.0548093e-10
0.00010115389 0 0.00034203881 3.4113673e-10
0.00010365127 0 0.00034120898 1.2504042e-10
0.00010614865 0 0.00034041262 3.9423368e-10
0.00010739358 1.7646697e-23 0.00034000037 1.2287179e-09
9.1995272e-05 0 0.00034487927 -1.9578651e-10
9.36618e-05 0 0.00034435553 -1.8113289e-10
9.6159156e-05 0 0.0003435847 -3.4176719e-10
9.8598761e-05 -1.785977e-23 0.00034286622 -2.2339424e-10
8.3737806e-05 0 0.00034716969 7.6960609e-10
8.6169783e-05 0 0.0003464656 6.1360963e-10
8.8667113e-05 0 0.00034580191 -2.0034078e-10
9.0754507e-05 1.7810226e-23 0.00034524013 2.7893355e-10
7.3683305e-05 0 0.00034967926 4.3656219e-10
7.6180574e-05 0 0.00034902405 7.128996e-10
7.8677857e-05 0 0.00034840991 4.2451237e-10
8.1175154e-05 0 0.00034785708 6.4467175e-10
8.2486954e-05 0 0.00034751899 8.0289564e-10
6.1290347e-05 0 0.00035225077 -1.1639915e-10
6.3694412e-05 0 0.00035170522 3.471448e-10
6.6191604e-05 0 0.00035116894 9.6118533e-10
6.8688818e-05 0 0.00035070323 1.332365e-09
7.1186053e-05 0 0.00035026527 3.382254e-10
7.2434925e-05 -8.8241643e-24 0.00035000181 0
4.4570597e-05 2.7958916e-21 0.00035494397 -8.3844124e-10
4.6215e-05 0 0.00035466045 -8.9166259e-10
4.8711923e-05 0 0.00035422397 -8.3681538e-10
5.1208902e-05 0 0.00035381364 -2.6348825e-10
5.370593e-05 0 0.00035345614 4.0935779e-10
5.6203e-05 0 0.00035310869 1.1066714e-10
5.8700106e-05 0 0.00035275932 -7.2906746e-10
6.0037811e-05 -8.8376266e-24 0.00035252034 -7.5234222e-10
1.665e-06 0 0.0003571306 1.2789207e-09
2.8717596e-06 0 0.0003574736 7.6126273e-10
8.8534119e-06 0 0.00035744786 -6.9110339e-10
1.1285e-05 0 0.0003573741 -5.1019601e-10
1.3774091e-05 0 0.00035731358 -8.8320487e-10
1.6265769e-05 0 0.00035723896 -1.490115e-09
1.8759e-05 0 0.00035713427 -1.5541529e-09
2.1253235e-05 0 0.00035701408 -1.3150857e-09
2.3748158e-05 0 0.00035687399 -1.2642102e-09
2.6243571e-05 0 0.000356694 -1.3154906e-09
2.8739348e-05 0 0.00035648368 -1.8132856e-09
3.12354e-05 0 0.00035627563 -2.1619529e-09
3.3731667e-05 0 0.00035607969 -1.8040739e-09
3.6228103e-05 0 0.00035585666 -9.5199154e-10
3.8724677e-05 0 0.00035560555 -7.5885321e-10
4.1221364e-05 0 0.000355368 -9.1676526e-10
4.3349213e-05 1.0487448e-22 0.00035512117 -1.8314875e-09
4.1106892e-06 0 0.00035756531 8.9650947e-10
6.327e-06 0 0.00035752687 -1.0570464e-09
0.00011988232 0 0.00036250082 0
1.4985158e-05 1.8163632e-19 0.00037001627 0
4.9950185e-06 -4.1566314e-19 0.00038260425 0
4.9949571e-06 7.0356529e-24 0.00038747956 0
4.9950151e-06 0 0.00038741588 0
2.7469184e-05 -6.2791143e-23 0.00038999968 0
1.7488322e-05 -2.8125612e-23 0.00039249952 0
3.7462611e-05 0 0.00039249836 0
4.9956522e-06 5.6108951e-23 0.00039498464 0
1.2487431e-05 -1.8172915e-22 0.00039499462 0
1.7488471e-05 0 0.00039250066 0
2.2474187e-05 0 0.00039250005 0
9.9829538e-06 0 0.00039500033 0
1.4984774e-05 0 0.000399994 0
2.2473216e-05 0 0.00039999995 0
0.00018655142 0 0.00030200453 -1.0946617e-09
0.00018846318 0 0.00030075038 -1.2222429e-09
0.0001820708 0 0.0003048465 -9.2514861e-10
0.00018356908 0 0.00030390913 -8.2647569e-10
0.00018529793 -3.5384942e-23 0.00030281022 -7.0309524e-10
0.00017880302 0 0.00030687301 -1.1689945e-09
0.00018082449 0 0.00030562027 -1.673299e-09
0.00017421077 0 0.00030963677 -4.4655071e-10
0.0001760767 0 0.00030852259 -1.1069863e-09
0.00017754967 -3.5338176e-23 0.00030763849 -2.2335106e-09
0.00016955274 0 0.00031234243 -1.0587476e-09
0.00017108179 0 0.00031146699 -6.819691e-10
0.00017296044 0 0.00031037125 3.0478787e-10
0.00016482658 0 0.00031499541 -1.059949e-09
0.00016608688 0 0.00031429508 -1.2540804e-09
0.00016830432 0 0.00031304821 -1.6967084e-09
0.0001612595 0 0.00031692106 -1.5430346e-09
0.00016358024 -1.7780248e-23 0.00031567031 -1.973424e-09
0.00015634436 0 0.00031948859 -4.8357736e-10
0.00015859453 0 0.0003183274 -1.5849603e-09
0.0001600069 1.766492e-23 0.00031758866 -2.4804102e-09
0.00015132835 0 0.00032199937 -9.717678e-10
0.00015359963 0 0.00032087642 -1.1357959e-09
0.00015509284 -1.7674704e-23 0.00032012595 -9.8985198e-10
0.00014619948 0 0.00032445716 -1.6351529e-11
0.00014860475 0 0.0003233196 -6.053307e-10
0.00015007615 1.7673098e-23 0.00032261019 -1.0099125e-09
0.0001396969 0 0.00032742815 6.8937555e-10
0.00014111243 0 0.0003267879 2.5683912e-10
0.00014360987 0 0.0003256606 -2.5012477e-10
0.00014494754 0 0.00032504321 6.1983492e-11
0.00013430616 0 0.00032976304 6.9669747e-10
0.00013611757 0 0.00032898202 9.2738986e-10
0.00013844722 1.7784422e-23 0.00032797405 1.0376096e-09
0.0001287673 0 0.0003320526 2.9136733e-10
0.00013112271 0 0.00033109397 3.6217418e-11
0.00013305575 0 0.00033028948 0
0.00012612787 0 0.00033311376 1.1721619e-09
0.00012751588 0 0.00033255771 1.8754126e-09
0.00014484894 0 0.00039000012 0
0.00014735439 0 0.0003975039 0
0.0003496508 7.058624e-23 0.00037750183 0
0.0003047303 3.5297128e-23 0.00038500024 0
0.00049696643 0 0.00035490766 1.034361e-10
0.0004994615 0 0.00035480525 0
0.0004969882 0 0.00035501224 7.9795057e-10
0.00049946687 7.0590761e-23 0.00035502244 1.3255806e-09
0.00047482913 0 0.00035993868 -4.6691803e-10
0.00048446545 0 0.00035778202 -4.9612866e-10
0.000484563 -7.0593071e-23 0.00035797914 -7.7416905e-10
0.0004507999 0 0.00036002155 0
0.00045257337 0 0.00036000488 0
0.00046472367 0 0.00036245944 0
0.00047479152 0 0.00036003805 0
0.0004770308 0 0.00036000689 0
0.00048452995 0 0.00036001987 -8.0175774e-10
0.00042957344 0 0.00036250133 0
0.00046494386 7.0648132e-23 0.00036256038 0
0.00046703942 -6.5724259e-18 0.00036250589 0
0.00043704878 0 0.00037248362 0
0.00043903052 0 0.00037245466 0
0.00044688584 0 0.00037244309 -3.5720603e-10
0.00044706668 0 0.00037248545 -1.5911864e-09
0.00040943621 0 0.00037481326 -3.5580141e-09
0.0004096962 0 0.00037485373 -3.0114277e-09
0.00042707225 0 0.00037499974 0
0.00042729218 0 0.00037498099 0
0.00043705441 0 0.00037250909 0
0.00043940761 0 0.00037252424 0
0.00043957476 0 0.00037250615 0
0.00044682817 0 0.00037259648 -2.682665e-10
0.00044708937 -7.0591899e-23 0.0003725389 -1.5625848e-09
0.00038700438 0 0.00037740023 -5.942735e-09
0.00038718958 0 0.0003774233 -6.0643825e-09
0.00040948887 0 0.00037509167 -4.4841209e-09
0.00040967791 0 0.00037508633 -3.0089908e-09
0.00042703693 0 0.00037505018 0
0.0004273389 -7.0630073e-23 0.00037510428 0
0.00047077985 0 0.00037500163 0
0.00047327735 0 0.00037500159 0
0.00047577484 0 0.00037500141 0
0.00047827234 0 0.00037500128 0
0.00048076983 0 0.00037500106 0
0.00048326733 0 0.00037500095 0
0.00048576482 0 0.00037500095 0
0.00048826231 0 0.00037500101 0
0.00049075981 0 0.00037500096 0
0.0004932573 0 0.00037500092 0
0.0004957548 0 0.00037500091 0
0.00049825229 0 0.00037500102 0
0.00037709754 0 0.00037775333 6.1539837e-10
0.00037714604 -7.0590485e-23 0.000378526 1.0209696e-09
0.00038700546 0 0.00037760159 -5.9379102e-09
0.00038720141 0 0.00037759083 -5.2552639e-09
0.00037714113 -7.0589565e-23 0.00038002179 7.9447759e-10
0.00040701086 0 0.00038489457 -6.0382474e-09
0.00040717759 0 0.0003848974 0
0.00040703961 0 0.00038505361 -6.9394699e-09
0.0004071617 0 0.00038506635 -6.1075638e-09
0.00048448242 0 0.00038996627 0
0.00048495531 0 0.00038997831 0
0.0004844921 0 0.0003900239 7.8935636e-10
0.00048638544 0 0.00039001794 9.3757523e-10
0.00048701778 0 0.00039000403 8.0877872e-10
0.00042207517 0 0.00039750165 0
3.4954758e-05 0 0.00040249988 0
3.2492273e-05 4.4149926e-24 0.00040250521 0
7.4926624e-05 0 0.00040750056 0
3.2466872e-05 0 0.00041250194 0
6.743705e-05 8.8238551e-24 0.00041750034 0
1.998036e-05 1.1029273e-23 0.00042000303 0
3.2467983e-05 0 0.00042000247 0
5.7442566e-05 0 0.00042250151 0
3.2474432e-05 -4.4125716e-24 0.00043250178 0
0.00011488428 0 0.00043250114 0
3.7466124e-05 2.5466504e-19 0.00044000007 0
0.00010239844 0 0.00044000063 0
0.00011238872 1.7646711e-23 0.00044250012 0
4.9952807e-05 0 0.00044750107 0
6.9911182e-05 0 0.00046250102 0
7.2404718e-05 0 0.00046250051 0
7.247603e-05 -8.8291666e-24 0.00046250018 0
7.9922798e-05 0 0.00046250163 0
3.4965168e-05 -4.4116511e-24 0.00046750241 0
4.9953983e-05 -8.8239633e-24 0.00046750826 0
8.9916232e-05 1.7647743e-23 0.00046750111 0
1.7482537e-05 0 0.00047249407 0
2.2474827e-05 0 0.00047249968 0
5.0088879e-06 -1.2661806e-23 0.00047250417 0
2.2474638e-05 0 0.00047250011 0
2.4978532e-05 -4.4122537e-24 0.00047250031 0
0.0001123883 1.7646646e-23 0.0004725001 0
1.7482988e-05 2.2058765e-24 0.00047500387 0
7.2427533e-05 -8.8232639e-24 0.0004750175 0
9.7401761e-05 0 0.00047500011 0
0.00010240044 0 0.00047749953 0
5.4946501e-05 0 0.00047999997 0
7.2427506e-05 0 0.00047753217 0
9.9890751e-05 3.3686572e-19 0.00047750705 0
0.0001023989 0 0.00047750004 0
5.2447356e-05 0 0.00048249849 0
5.9938811e-05 0 0.00048000005 0
7.2427513e-05 0 0.00048249341 0
0.00011238887 1.7646735e-23 0.00048000003 0
0.00011987858 0 0.00048000003 0
0.00012240352 -1.7650271e-23 0.00048000013 0
1.9982633e-05 6.9460403e-21 0.00048499072 0
4.4652597e-05 0 0.00048250005 0
4.4966603e-05 -8.8776405e-20 0.00048250317 0
4.7458748e-05 0 0.00048250178 0
5.2439309e-05 0 0.00048250381 0
5.4946852e-05 0 0.00048250059 0
5.7448882e-05 0 0.00048250274 0
7.2427509e-05 0 0.00048507079 0
7.2427506e-05 -2.8000962e-16 0.00049017298 0
6.2438013e-05 0 0.00049250104 0
0.00010989012 -1.7646539e-23 0.00049250101 0
0.00011987921 0 0.00049499925 0
0.00012237804 0 0.00049499988 0
7.2427545e-05 0 0.00049747519 0
9.7405832e-05 -1.7647123e-23 0.00049500201 0
0.00011738205 0 0.00049749878 0
0.000119878 -1.8795219e-20 0.00049747511 0
0.00011988408 0 0.00049748745 0
0.00012237872 0 0.00049500778 0
0.0001973026 3.5293057e-23 0.00041253137 0
0.00020978945 0 0.00041999933 0
0.00021222028 0 0.00041997646 0
0.00020978929 0 0.00042000074 0
0.00021226815 0 0.00042000691 0
0.00021977564 0 0.00042249554 0
0.00021980041 0 0.00042248599 0
0.00022976906 0 0.00042249873 0
0.00024475436 0 0.00042249978 0
0.00024476616 0 0.00042248974 0
0.00021976605 0 0.00042251975 0
0.00021980813 0 0.00042252715 0
0.00022975346 0 0.0004249439 0
0.00022977446 0 0.0004249392 0
0.00024224294 0 0.00042497474 0
0.00024474344 0 0.00042495604 0
0.00024475662 0 0.00042330471 0
0.00022975653 0 0.00042501158 0
0.00022977736 3.5294169e-23 0.00042500715 0
0.00020479573 0 0.00043533648 0
0.00022976971 0 0.00043749979 0
0.00022727092 0 0.00043750006 0
0.00023226663 0 0.00043750032 0
0.00015484324 2.810819e-18 0.00044250254 0
0.00013736228 0 0.0004500008 0
0.00023476467 0 0.00045749984 0
0.00022227665 0 0.00045750062 0
0.00023226611 0 0.00045750255 0
0.00023476329 0 0.00045750069 0
0.00023725872 0 0.00045750124 0
0.00023974233 0 0.0004575004 0
0.00015484467 0 0.00046500049 0
0.00016982604 0 0.00046500017 0
0.00022477503 0 0.0004650074 0
0.0001798248 0 0.00047000047 0
0.00022477502 3.5293043e-23 0.00047048863 0
0.00022477507 0 0.00047491903 0
0.00016483987 0 0.00047749907 0
0.00022477502 0 0.00047502661 0
0.0001573419 0 0.00047750036 0
0.00022477502 0 0.00047765909 0
0.00022477506 0 0.00048242287 0
0.00024475465 0 0.00048249983 0
0.00021478458 0 0.00048250155 0
0.00024225718 0 0.00048499899 0
0.00024468626 0 0.0004849883 0
0.00024474792 0 0.00048500135 0
0.00020479431 0 0.00048750088 0
0.00014485646 0 0.00049000014 0
0.00014736175 -1.7647627e-23 0.00049000147 0
0.00012487678 1.7646771e-23 0.00049500329 0
0.00034465522 0 0.00041258921 0
0.00035214789 0 0.00041267304 0
0.00026473477 0 0.00042249969 0
0.00034215804 0 0.00042000081 0
0.00026472606 0 0.0004249382 0
0.00026474551 0 0.00042495611 0
0.00027221393 0 0.00042498605 0
0.0002722425 0 0.00042498581 0
0.00032093037 0 0.00042250015 0
0.00032342786 0 0.00042250022 0
0.00032592534 0 0.00042250018 0
0.00032804027 0 0.00042250016 0
0.00033174186 0 0.00042250017 0
0.00033447739 0 0.00042250025 0
0.0003348091 0 0.00042250104 0
0.0003371771 0 0.00042250047 0
0.00036712251 0 0.00042497531 0
0.00036716021 0 0.00042495945 0
0.00026472582 0 0.00042500961 0
0.00026474425 3.5294273e-23 0.00042500802 0
0.00027221347 0 0.00042501664 0
0.00027224511 0 0.00042501761 0
0.00036712473 0 0.00042500762 0
0.00036714636 7.0588743e-23 0.00042501046 0
0.00028469624 0 0.00042998903 0
0.00028472241 0 0.00042999284 0
0.00026473452 0 0.00043249964 0
0.00028469162 0 0.00043001587 0
0.0002847247 3.5294242e-23 0.0004300096 0
0.00029720216 0 0.00043249963 0
0.00029966793 0 0.00043249433 0
0.00031218714 0 0.00043249973 0
0.0003146617 0 0.00043249686 0
0.00031468894 0 0.00043249579 0
0.00035217873 0 0.00043246419 7.8571246e-10
0.00036965604 0 0.00043248703 0
0.00026223654 0 0.00043499905 0
0.00029719951 0 0.00043250319 0
0.00029966076 0 0.00043250838 0
0.00029970337 0 0.00043250262 0
0.00031466072 0 0.00043250821 0
0.00031468865 0 0.00043250354 0
0.00035211422 0 0.00043258648 -1.0492775e-10
0.00035224494 -7.0605602e-23 0.00043268642 6.8467148e-11
0.00036966308 0 0.00043250983 0
0.00032467479 0 0.00043749961 0
0.00033716214 0 0.00043749953 0
0.00032467338 0 0.00043998984 0
0.00032468101 0 0.00043997143 0
0.0003371598 0 0.00043999711 0
0.00033716767 0 0.00043999402 0
0.00036964085 0 0.00043998437 0
0.00033716483 -3.5293284e-23 0.00044000278 0
0.00034714786 0 0.00044248975 0
0.00036962674 0 0.0004400026 0
0.00036965205 0 0.00044002028 0
0.0002922045 0 0.00044250721 0
0.00034714965 0 0.00044250328 0
0.00034715462 0 0.00044250377 0
0.0003546404 0 0.00044499377 0
0.00035466107 0 0.00044499457 0
0.00034715232 0 0.00044749871 0
0.00035463783 0 0.00044501914 0
0.00035466289 -9.7304546e-22 0.00044501989 0
0.00035963752 0 0.00044500211 0
0.00036213447 0 0.00044749381 0
0.00036214522 0 0.00044749124 0
0.00030469926 0 0.00044999803 0
0.00031963014 0 0.00044998054 -8.8544488e-11
0.00031969243 0 0.00044998779 -7.9697447e-10
0.00033965979 0 0.00044999974 0
0.00034715225 0 0.00044999953 0
0.00034716759 0 0.00044999236 0
0.00036214051 0 0.00044750284 0
0.00029468649 -6.5364991e-22 0.0004524757 0
0.00029472659 0 0.00045247389 0
0.00030469365 0 0.00045000135 0
0.00030474434 -3.5298754e-23 0.00045002155 0
0.00031957248 0 0.00045230384 0
0.00031968605 0 0.00045235504 -6.1900884e-10
0.00033965086 0 0.00045248035 0
0.00033966716 0 0.0004524638 0
0.00034715084 0 0.00045000204 0
0.00034718951 -3.5296802e-23 0.00045000604 0
0.00027222838 3.5293153e-23 0.00045250207 0
0.00029469159 0 0.00045251388 0
0.00029472034 -3.5294876e-23 0.00045251492 0
0.00031218352 0 0.00045250465 0
0.00031224934 -3.5300028e-23 0.00045252139 0
0.00031480031 -3.5305965e-23 0.00045250604 -1.5218026e-11
0.0003196417 0 0.0004525075 -2.7215576e-10
0.0003396511 0 0.0004525099 0
0.00033966814 -3.5293885e-23 0.00045251094 0
0.0003621122 0 0.00045499469 0
0.00032967375 0 0.00045730353 0
0.00034731816 0 0.00045744093 0
0.00034965523 0 0.00045749478 0
0.00036208573 0 0.00045501747 0
0.00036214427 0 0.00045500499 0
0.00036962666 0 0.00045500217 0
0.00037211296 0 0.00045500132 0
0.00037214353 0 0.00045500049 0
0.00026473583 3.529315e-23 0.00045750016 0
0.0003371504 0 0.0004599874 0
0.00033961786 0 0.00045999035 0
0.0003397132 0 0.00045996195 0
0.00034726884 -3.5304862e-23 0.0004575357 0
0.00034966276 0 0.00045751328 0
0.000337155 0 0.00046000686 0
0.00033963286 0 0.00046000492 0
0.00033968048 0 0.0004600154 0
0.00027722214 0 0.00047249964 0