# interfaceEnergyFluxLiquid  FACE_DATA 2542
# x  y  z  interfaceEnergyFluxLiquid
2.499848e-06 -1.4500945e-21 7.508494e-05 0
2.5069347e-06 8.1814339e-24 7.7551611e-05 0
2.4486652e-06 0 8.0010754e-05 0
2.5195126e-06 0 8.0034505e-05 0
2.5125287e-06 9.6666681e-24 8.4942903e-05 0
2.5093772e-06 -9.2054304e-24 8.737639e-05 0
2.5120776e-06 -2.1707744e-23 8.7564105e-05 0
2.4864865e-06 3.1094727e-23 9.2464464e-05 0
2.5118312e-06 -2.4333942e-24 9.2383587e-05 1.8993273e-08
2.9503758e-07 -4.4116299e-24 9.4775182e-05 0
2.5209607e-06 0 9.4905568e-05 -1.6368961e-08
1.1328801e-07 8.547533e-24 9.6911213e-05 0
2.5066957e-06 0 9.5029865e-05 2.0867891e-08
0.00017384045 0 1.2501413e-06 160371.97
0.00017397241 0 3.7501832e-06 170784.44
0.00017412686 0 6.2501544e-06 182286.94
0.00017421159 0 8.7500352e-06 188651.34
0.00017417322 1.7652912e-23 1.1249849e-05 184918.49
0.00017396564 1.7660509e-23 1.374967e-05 169174.02
0.00017362901 0 1.6249577e-05 151515.12
0.00017327514 0 1.8749544e-05 140941.82
0.0001728754 0 2.1249508e-05 132869.08
0.00017229111 0 2.4788704e-05 227059.75
0.00017250688 -1.7664863e-23 2.3545392e-05 127187.38
0.00017202642 0 2.6249499e-05 202633.54
0.00017162755 0 2.8749543e-05 175539.58
0.00017126682 0 3.1249562e-05 159728.71
0.00017089257 1.7666781e-23 3.3749522e-05 147228.09
0.00017046026 -1.7671264e-23 3.6249416e-05 137764.24
0.00016974229 0 3.9625944e-05 225307.14
0.00017003382 -1.7667664e-23 3.839583e-05 128896.45
0.00016931993 1.768138e-23 4.1249177e-05 187043.38
0.00016859297 -1.7683502e-23 4.3749127e-05 150820.59
0.00016789752 1.7684629e-23 4.62491e-05 135622.29
0.00016704386 0 4.9113218e-05 202891.08
0.0001674497 0 4.7867941e-05 125595.83
0.00016627795 0 5.1248936e-05 154479.83
0.00016544116 -1.7692178e-23 5.3748922e-05 135893.09
0.0001644935 0 5.6540795e-05 196363.34
0.00016493908 1.7657652e-23 5.5293498e-05 124326.22
0.0001636477 0 5.8748828e-05 150809.35
0.00016230901 0 6.2425576e-05 208864.87
0.00016278602 0 6.1177441e-05 133915.63
0.00016175749 -1.7701279e-23 6.3748707e-05 176079.33
0.00016072842 -1.7704067e-23 6.6248641e-05 141630.82
0.00015948547 0 6.9190227e-05 191629.58
0.00016003535 -1.7668052e-23 6.794825e-05 125448.63
0.00015853735 0 7.1248496e-05 148107.57
0.00015706688 0 7.4423564e-05 190984.92
0.00015766798 -1.7682923e-23 7.3182782e-05 128830.54
0.00015615418 -1.7717131e-23 7.6248333e-05 150826.56
0.00015453957 0 7.9417371e-05 185951.52
0.00015519873 1.768671e-23 7.8180653e-05 129177.11
0.00015355696 1.7725908e-23 8.1248125e-05 148446.85
0.00015188081 0 8.4177147e-05 176305.66
0.00015260111 0 8.2945889e-05 125321
0.00015071766 -1.7732298e-23 8.6247975e-05 141884.98
0.00014913157 0 8.8841852e-05 164125.75
0.00014991179 0 8.7600971e-05 120313.22
0.00013986012 0 9.0000979e-05 0
0.00014712633 0 9.2072863e-05 187659.44
0.00014788587 1.7710088e-23 9.0852616e-05 131949.32
0.00017734376 0 9.0007704e-05 183776.28
0.00014604616 -1.7740921e-23 9.3747771e-05 146603.17
0.00014417686 0 9.6549322e-05 163342.21
0.00014505952 0 9.5296843e-05 123020.98
0.00014208607 0 9.9607213e-05 173639.67
0.00014295496 1.7720169e-23 9.836456e-05 132733.17
0.0002839572 0 8.2500842e-05 159965.35
0.00028596557 0 8.2502973e-05 147044.33
0.00028846305 0 8.2504296e-05 141309
0.00029096054 0 8.2504529e-05 139017.79
0.00029345802 0 8.2504329e-05 138008.49
0.00029595551 0 8.2504165e-05 137458.03
0.00029845299 0 8.2504126e-05 137085.87
0.00030095048 0 8.2504137e-05 136787.14
0.00030344796 0 8.2504139e-05 136522.8
0.00030594545 0 8.2504126e-05 136280.28
0.00030844294 0 8.250411e-05 136052.94
0.00031094042 0 8.2504098e-05 135839.99
0.00031343791 0 8.2504088e-05 135637.97
0.0003159354 0 8.2504079e-05 135443.83
0.00031843288 0 8.250407e-05 135256.13
0.00032093037 0 8.2504062e-05 135077.47
0.00032342786 0 8.2504055e-05 134894.45
0.00032592534 0 8.2504047e-05 134775.52
0.00032842283 0 8.2504039e-05 134640.75
0.00033092032 0 8.2504032e-05 134558.68
0.00033341781 0 8.2504027e-05 134470.79
0.0003359153 0 8.250402e-05 134333.69
0.00033841279 0 8.2504014e-05 134199.6
0.00034091027 0 8.2504009e-05 134074.51
0.00034340776 0 8.2504004e-05 133957.48
0.00034590525 0 8.2503999e-05 133850.89
0.00034840274 0 8.2503993e-05 133754.4
0.00035090023 0 8.2503987e-05 133663.96
0.00035339772 0 8.2503981e-05 133577.38
0.00035589521 0 8.2503975e-05 133496.26
0.0003583927 0 8.2503968e-05 133420.33
0.00036089019 0 8.2503964e-05 133347.12
0.00036338768 0 8.250396e-05 133277.99
0.00036588517 0 8.2503955e-05 133212.31
0.00036838266 0 8.250395e-05 133150.27
0.00037088015 0 8.2503947e-05 133091.5
0.00037337764 0 8.2503937e-05 133035.6
0.00037587513 0 8.2503938e-05 132982.76
0.00037837262 0 8.2503935e-05 132932.7
0.00038087011 0 8.2503932e-05 132885.75
0.00038336761 0 8.2503928e-05 132842.85
0.0003858651 0 8.2503924e-05 132804.88
0.00038836259 0 8.2503919e-05 132771.84
0.00039086008 0 8.2503914e-05 132742.95
0.00039335757 0 8.2503909e-05 132717.44
0.00039585506 0 8.2503904e-05 132694.61
0.00039835255 0 8.2503899e-05 132673.86
0.00040085005 0 8.2503895e-05 132654.82
0.00040334754 0 8.250389e-05 132637.35
0.00040584503 0 8.2503886e-05 132621.28
0.00040834252 0 8.2503882e-05 132606.26
0.00041084002 0 8.2503878e-05 132592.07
0.00041333751 0 8.2503875e-05 132579.15
0.000415835 0 8.2503871e-05 132568.3
0.00041833249 0 8.2503867e-05 132559.63
0.00042082999 0 8.2503864e-05 132552.53
0.00042332748 0 8.250386e-05 132546.49
0.00042582497 0 8.2503856e-05 132541.27
0.00042832246 0 8.2503853e-05 132536.65
0.00043081996 0 8.2503849e-05 132532.55
0.00043331745 0 8.2503846e-05 132529.43
0.00043581494 0 8.2503843e-05 132527.73
0.00043831244 0 8.250384e-05 132527.31
0.00044080993 0 8.2503837e-05 132527.81
0.00044330742 0 8.2503834e-05 132529.63
0.00044580492 0 8.2503831e-05 132534.1
0.00044830241 0 8.2503828e-05 132542.87
0.0004507999 0 8.2503824e-05 132557.15
0.0004532974 0 8.2503819e-05 132577.6
0.00045579489 0 8.2503812e-05 132604.92
0.00045829238 0 8.2503805e-05 132639.77
0.00046078988 0 8.2503798e-05 132681.97
0.00046328737 0 8.250379e-05 132729.67
0.00046578487 0 8.2503781e-05 132778.98
0.00046828236 0 8.2503772e-05 132825.26
0.00047077985 0 8.2503764e-05 132866.5
0.00047327735 0 8.2503758e-05 132905.68
0.00047577484 0 8.2503752e-05 132948.77
0.00047827234 0 8.2503746e-05 132999.61
0.00048076983 0 8.2503738e-05 133056.67
0.00048326733 0 8.250373e-05 133115.39
0.00048576482 0 8.2503722e-05 133173.69
0.00048826231 0 8.2503715e-05 133235.18
0.00049075981 0 8.2503714e-05 133307.98
0.0004932573 0 8.2503712e-05 133691.47
0.0004957548 0 8.2503667e-05 133639.12
0.00049825229 0 8.2503817e-05 155671.2
6.2438415e-05 0 0.00010500203 0
7.7422515e-05 0 0.00011251155 0
0.00010240054 0 0.00011750107 0
0.00012397321 0 0.00012157475 158530.13
0.00011238808 0 0.00012250022 0
0.00012146123 0 0.00012410147 159255.22
0.00012273015 -1.7697177e-23 0.00012285185 125451.58
0.00011892156 0 0.00012651679 157326.61
0.00012020797 -1.7694622e-23 0.00012531414 124722.62
0.00011614036 0 0.00012899591 153601.87
0.00011764701 0 0.00012773888 124152.6
9.9907136e-05 0 0.00013000063 0
0.00010239811 0 0.00013000016 0
0.00011221806 0 0.00013235979 179479.02
0.00011364082 0 0.00013117172 146944.52
0.00011493106 1.7653591e-23 0.0001300395 119028.35
0.00010943816 0 0.00013461831 165795.92
0.00011097135 0 0.00013337738 138807.26
0.00010655772 0 0.00013688827 165462.68
0.00010819281 1.7776734e-23 0.00013563452 131980.14
0.00010365763 0 0.00013907206 153975.01
0.00010531891 0 0.00013781858 124183.02
9.9372682e-05 0 0.00014213395 170881.6
0.00010115389 0 0.00014089454 140588.65
0.00010240344 1.7647544e-23 0.00014000436 118306.42
9.6296894e-05 0 0.00014424743 160319.96
9.8137421e-05 0 0.00014300231 128951.98
9.1838157e-05 0 0.00014713928 173710.52
9.36618e-05 0 0.00014599176 141957.11
9.5048708e-05 1.7673187e-23 0.00014509544 120189.58
8.7354012e-05 0 0.00014996514 195176.39
8.8667113e-05 0 0.00014913535 156232.85
9.06025e-05 -1.7781058e-23 0.00014793509 127832.67
8.3925237e-05 0 0.00015193039 169038.52
8.6120922e-05 8.9462455e-24 0.00015069906 137070.18
7.9148278e-05 0 0.00015458902 179511.82
8.1175154e-05 0 0.0001535109 142327.19
8.2688668e-05 0 0.00015265369 122489.61
7.4166461e-05 0 0.00015713206 185540.06
7.6180574e-05 0 0.00015613436 145079.8
7.7912194e-05 -8.8786009e-24 0.00015525524 126007.02
6.8941251e-05 0 0.00015955582 183330.4
7.1186053e-05 0 0.00015852736 143446.88
7.2926668e-05 0 0.00015773678 126465.67
6.2204595e-05 0 0.00016240893 206740.9
6.3694412e-05 0 0.00016177737 167109.85
6.6191604e-05 0 0.00016075086 138856
6.769471e-05 -8.8573923e-24 0.0001601153 124276.6
5.6361096e-05 0 0.00016460409 189845.35
5.8700106e-05 0 0.00016370589 147616.57
6.0968665e-05 -8.971312e-24 0.00016289185 133015.22
4.8849404e-05 0 0.00016714105 194693.35
5.1208902e-05 0 0.00016632375 151603.26
5.370593e-05 0 0.00016551731 136030.12
5.5107173e-05 0 0.00016505764 126325.92
8.4916354e-05 0 0.00016500355 180859.9
3.9222243e-05 0 0.00016981872 218193.45
4.1221364e-05 0 0.00016928304 173768.06
4.3718143e-05 0 0.00016858144 146573.88
4.6215e-05 0 0.00016792159 135939.94
4.7592722e-05 -8.8492304e-24 0.00016754374 128588.72
2.3917485e-05 0 0.00017232869 209701.66
2.6243571e-05 0 0.00017195754 181923.11
2.8739348e-05 0 0.00017159382 164704.66
3.12354e-05 0 0.00017124624 152799.14
3.3731667e-05 0 0.00017090516 144103.75
3.6228103e-05 0 0.00017046327 139277.14
3.7983893e-05 0 0.00017012056 133349.71
0.00011989089 -1.7648123e-23 0.00017000386 181214.92
1.665e-06 0 0.00017280588 127040.88
3.885e-06 0 0.00017299476 146018.27
6.327e-06 0 0.00017326402 175458.16
8.8007143e-06 0 0.00017347923 155439.28
1.1285e-05 0 0.0001735469 137446.7
1.3774091e-05 0 0.0001734879 136851.27
1.6265769e-05 0 0.00017332393 139520.84
1.8759e-05 0 0.00017305235 140617.21
2.1253235e-05 0 0.00017273867 137339.53
2.2653543e-05 -4.4458255e-24 0.00017252738 130562.19
3.4974031e-05 -4.412769e-24 0.0001975001 211833.47
0.00014092731 1.7758394e-23 0.00010124736 143532.36
0.00013901654 0 0.00010386466 156442.6
0.00013994797 1.765761e-23 0.00010261961 120203.81
0.0001368029 0 0.00010677785 163256.36
0.00013777155 1.7698861e-23 0.00010553497 126419.1
0.00013455589 0 0.00010961661 167544.03
0.00013555777 -1.7736551e-23 0.00010836867 133442.53
0.00020980998 0 0.00010750729 182679.02
0.00013227639 0 0.00011239034 180940.3
0.00013331053 1.7771059e-23 0.0001111408 140408.53
0.00013112681 0 0.00011374661 147255.25
0.00012885664 0 0.00011635442 152941.76
0.00012996622 1.765958e-23 0.00011511003 120415.98
0.00012644749 0 0.00011900779 156873.27
0.00012761281 0 0.00011776321 123125.09
0.00012519776 0 0.00012033524 124866.48
0.0001798288 0 0.00017002152 178676.55
0.00025974539 0 0.0001075128 180578.69
0.00025975175 3.5294635e-23 0.00012001175 168959.1
0.00026973268 3.529339e-23 0.00013000638 180933.31
0.00026723502 -3.5293372e-23 0.00013750601 180792.36
0.00036588517 0 0.00019000047 173833.93
0.00036838266 0 0.00019000122 164641.63
0.00037088015 0 0.0001900015 160196.74
0.00037337764 0 0.00019000152 158835.69
0.00047827234 0 0.00016250067 178479.4
0.00048076983 0 0.00016250082 172735.45
0.00048326733 0 0.00016250084 170643.79
0.00048576482 0 0.00016250084 170309.51
0.00048826231 0 0.00016250084 170261.09
0.00049075981 0 0.00016250083 170183.49
0.0004932573 0 0.00016250083 170134.02
0.0004957548 0 0.00016250082 169561.7
0.00049825229 0 0.00016250091 194280.79
0.00040460135 7.0587187e-23 0.0001875095 170679.03
0.00037587513 0 0.0001900015 158473.79
0.00037837262 0 0.00019000149 158354.08
0.00038087011 0 0.00019000149 158270.89
0.00038336761 0 0.00019000148 158221.85
0.0003858651 0 0.00019000147 158341.41
0.00038836259 0 0.00019000153 159355.24
0.00039086008 0 0.00019000161 162971.91
0.00039335757 0 0.00019000074 169866
0.00039674223 0 0.00019000061 192643.29
0.00039750687 7.0657859e-23 0.00019000304 194367.47
0.00039962963 -7.0591313e-23 0.00019000101 212065.37
0.00010489636 -1.7646748e-23 0.00021500264 172357.98
0.00010239819 -1.7646638e-23 0.00022000145 175461.78
9.2417232e-05 1.7648378e-23 0.00023002507 181037.65
0.00012238159 0 0.00023000145 182216.92
2.4975433e-05 0 0.00027500327 212304.06
7.2428066e-05 0 0.00027500149 181581.16
3.2468058e-05 0 0.00028249802 203022.91
3.246751e-05 0 0.00028996847 219350.2
5.7442551e-05 -3.6119433e-20 0.00029250141 208509.44
3.4965017e-05 4.4116321e-24 0.00029507589 216945.79
0.00022479851 0 0.00020998141 169119.8
0.00024474528 0 0.00020756677 201408.2
0.00024477529 -3.5295965e-23 0.00020773885 201439.96
0.00021732929 0 0.00021246462 169440.52
0.00022475462 0 0.00021002053 167358.68
0.00022484467 -3.5303975e-23 0.0002100672 169383.07
0.00024475987 -3.5293742e-23 0.00021000477 167030.84
0.00021734718 3.5303541e-23 0.0002125499 170545.99
0.00024223803 0 0.00021748438 168449.36
0.00024226496 0 0.00021749284 167728.89
0.0002422122 0 0.00021759816 178471.18
0.00024226811 0 0.00021756193 199469.44
0.00014987819 0 0.00022252817 167763.74
0.00016736309 1.7649745e-23 0.00022251113 182819.4
0.00017485267 3.5298624e-23 0.00022251007 182801.63
0.00015235584 1.7647486e-23 0.00024002074 176961.17
0.000164863 0 0.00024001016 181541.07
0.00017984561 3.5298065e-23 0.00024250932 182157.31
0.00016984896 -1.764849e-23 0.00025250908 175169.15
0.00016483569 0 0.00025500035 174089.78
0.00024226519 3.529416e-23 0.00025501815 179500.91
0.00022228986 -3.5295002e-23 0.00025751851 168940.47
0.00023496344 3.5322838e-23 0.00025750079 209260.66
0.00020586506 0 0.00026000008 190827.93
0.00020819506 3.5445821e-23 0.00026000017 191990.12
0.00021200129 0 0.0002600001 205554
0.00021469641 0 0.00026000011 214383.54
0.00021491111 -3.5313745e-23 0.00026000084 212342.85
0.00021729244 3.5294654e-23 0.0002600003 215897.68
0.00024227524 0 0.0002650065 182947.12
0.00018245099 0 0.00026750114 210960.31
0.00016989121 0 0.00027500051 213769.09
0.00023976022 0 0.00028255434 216218.38
0.00023976054 0 0.0002874696 215901.54
0.00023976043 0 0.00028750607 211300.01
0.00012987167 -1.7646746e-23 0.00029000425 179798.7
0.00015484553 -1.764658e-23 0.00029000134 179943.89
0.00023976021 -3.5293071e-23 0.00029000054 181703.81
0.0001848248 0 0.00029250454 177166.77
0.0002497484 3.5293266e-23 0.00029499836 167847.15
0.00019731049 0 0.00029500128 201407.85
0.00023976072 0 0.00029749806 183264.33
0.00024974578 -3.5293636e-23 0.00029500739 172632.38
0.00020978593 0 0.00029999529 167078.4
0.00020981653 0 0.00029996234 169646.64
0.00023976015 -3.5293061e-23 0.00029750217 212106.7
0.00025224215 0 0.00020504618 205722.79
0.00025226688 0 0.0002052772 201816.32
0.00025225106 -3.5293538e-23 0.00020750346 166666.09
0.0002672196 0 0.00020998676 168498.91
0.00026728287 0 0.00020997616 177709.98
0.00027726761 0 0.00020999181 199228.06
0.00028719979 0 0.00020998437 169139.64
0.00028734527 0 0.00020996563 190916.4
0.00029719495 0 0.00020754713 201307.88
0.00029722504 3.5295716e-23 0.00020770697 200941.51
0.00031457975 0 0.00020998166 198595.4
0.00031469308 0 0.00020999117 168935.6
0.00026720792 0 0.00021002993 168733.01
0.00026730239 0 0.00021004879 171020.83
0.00027742195 -3.5318407e-23 0.00021002584 198813.81
0.00027972267 0 0.00021000255 167496.6
0.00028720679 0 0.00021000613 167734.41
0.00028735434 3.5310458e-23 0.00021000496 209389.72
0.00029720568 -3.5293417e-23 0.00021000317 167789.72
0.00031237463 0 0.00021000168 210191.7
0.00031468872 3.5293456e-23 0.00021000377 168425.96
0.00034214975 0 0.00022248381 177755.87
0.00034216375 0 0.00022248592 179612.35
0.00034215338 0 0.00022250435 168703.49
0.00034216212 0 0.00022250464 168714.15
0.00035962886 0 0.00022499703 191968.39
0.00035964331 0 0.00022499694 167710.98
0.00036961893 0 0.00022498843 167853.31
0.0003696376 0 0.0002249909 167999.8
0.00027724508 -3.5295914e-23 0.00022502259 169175.81
0.00035714221 0 0.00022500072 181324.98
0.00035962762 0 0.00022501873 170523.43
0.00035964353 0 0.00022503225 206435.31
0.00036962039 0 0.00022500605 170103.92
0.00036963929 -7.0587853e-23 0.00022500804 169001.41
0.00035964035 0 0.00022750046 169384.38
0.00037461986 7.0587047e-23 0.00023249552 168837.6
0.00037462108 0 0.00023250339 168608.37
0.00034465526 0 0.0002353428 205368.55
0.00034465506 0 0.0002376852 211490.82
0.00030469857 3.5293453e-23 0.00024000099 191540.66
0.00034465503 0 0.00024247421 219700.23
0.00034465502 0 0.00024498741 220403.73
0.00034465504 0 0.00024503376 219242.33
0.00036718988 0 0.00024749945 217159.35
0.00033216974 0 0.00024750521 179971.32
0.00034465501 0 0.00024751314 220489.83
0.00036715546 7.0590493e-23 0.00024750019 219464.96
0.00035715014 0 0.00025500026 217673.28
0.00036213545 0 0.00025500073 185744.52
0.00036464407 0 0.0002574912 168975.91
0.00036462611 0 0.00025750286 187705.56
0.00036467607 0 0.00025751693 181206.82
0.00027224236 0 0.0002600055 182059.98
0.00028222708 0 0.00026000425 177642.38
0.00035714176 0 0.00026249947 169361.34
0.00035715156 0 0.00026249887 206983.73
0.00035714211 0 0.00026250184 197851.09
0.00035714748 0 0.00026250535 168754.37
0.00034964874 0 0.00026500236 174578.08
0.00034965609 0 0.00026500265 179888.49
0.00035214772 0 0.00026500029 169050.35
0.00035464533 0 0.00026500045 169279.63
0.00035214757 -7.0586092e-23 0.00026750115 214989.87
0.0002659857 0 0.0002700001 191348.29
0.00026842042 0 0.00027000002 191348.44
0.00027098067 0 0.00027000001 191245.6
0.00027347815 0 0.00027000001 191166.44
0.00027597563 0 0.00027000001 191104.21
0.00027847312 0 0.00027000001 191088.32
0.00028029327 3.5365173e-23 0.00027000001 197898.7
0.00028236479 0 0.00027000005 212311.33
0.00028710824 0 0.00027000003 214561.68
0.00028967722 0 0.00027000012 218200.76
0.00028971568 3.5293731e-23 0.0002700001 218472.3
0.00029220993 3.5293333e-23 0.00027000022 210539.15
0.00032217753 -3.5293043e-23 0.00027001179 220402.36
0.00035214743 0 0.00027249721 219193.21
0.00035217058 0 0.00027248363 170230.22
0.00035464652 0 0.00027249475 190878.74
0.00031468998 -3.5293598e-23 0.00027251128 179688.97
0.00035219632 -7.0595863e-23 0.00027250249 213794.54
0.0003546484 0 0.00027250349 168709.49
0.00029969308 0 0.00027749741 183344.62
0.00029970199 0 0.00027749804 168000.42
0.00030719408 0 0.0002756506 196875.66
0.00033466502 0 0.00027749366 221553.18
0.0002996909 0 0.00027750517 173149.2
0.00029970264 3.5293351e-23 0.00027750264 168208.17
0.00030719277 0 0.00027978011 209731.89
0.0003545395 0 0.00027999907 215140.17
0.00035464687 0 0.0002799981 168582.88
0.00028970306 0 0.00028249067 169178.44
0.00028972751 0 0.00028249061 174509
0.00030719258 0 0.00028241997 216470.5
0.00035459861 0 0.00028000727 202225.25
0.00035464948 -7.058697e-23 0.00028000452 168607.23
0.00028970611 0 0.00028251784 196803.14
0.00028971906 -3.5294143e-23 0.00028252068 179691.15
0.00029220923 0 0.00028499701 172808.76
0.00030719254 0 0.00028253099 219178.46
0.00033702327 0 0.00028250015 214058.59
0.00033960466 0 0.00028250002 218531.98
0.00033972163 3.5299442e-23 0.00028250004 218341.65
0.00034242265 -3.5320361e-23 0.00028250066 208557.15
0.00028221189 0 0.00028749825 188444.06
0.00028221888 0 0.00028749859 168267.64
0.0002921961 0 0.00028501588 169823.77
0.00029222078 0 0.00028745988 186728.33
0.00030719257 3.5293048e-23 0.00028505876 217590.47
0.00028221209 0 0.00028750418 168700.16
0.00028221808 0 0.00028999612 204085.22
0.00029219006 0 0.00028751823 169044.62
0.00029224267 0 0.00028753037 169884.49
0.00030719253 0 0.00028997544 219640.53
0.00036463082 0 0.00028754427 209109.43
0.00036464432 7.0587884e-23 0.00028755158 199983.15
0.00036713355 7.0586281e-23 0.0002875021 176815.57
0.00025724255 -3.5293047e-23 0.00029003094 218614.19
0.00028222094 0 0.00029249992 218024.81
0.00028471601 0 0.00029249707 186118.89
0.00030719252 0 0.00029248162 220181.86
0.00033463241 0 0.00029248241 174831.71
0.00033467165 0 0.00029249228 168768.67
0.00034462947 0 0.00029247436 169544.72
0.00034714523 0 0.00029249587 173625.33
0.00024975565 0 0.00029499561 168675.79
0.00025724264 0 0.00029495145 217536.1
0.00027222468 0 0.00029499717 167679.2
0.00027224376 0 0.00029499429 184507.27
0.00028221699 0 0.00029499761 197282.67
0.00028471246 0 0.00029499373 181519.54
0.00028471987 0 0.0002949715 201023.89
0.00030719251 -3.5293041e-23 0.0002925082 220807.06
0.00033464534 0 0.00029250555 190678.55
0.0003346694 3.5293503e-23 0.00029250439 168103.04
0.00034465115 0 0.00029499362 170021.02
0.00024975883 0 0.00029501054 168502.87
0.00025724259 0 0.00029749112 218953.73
0.00027222481 9.6650556e-18 0.00029500278 168191.62
0.00027224089 0 0.00029500308 195630.02
0.00030719251 0 0.000295013 220725.06
0.00025724256 3.5293048e-23 0.00029750113 214199.59
0.00030719252 0 0.00029997424 219980.82
0.00031716203 0 0.00029999464 192861.02
0.00031718508 0 0.00029999743 168389.36
0.00045204817 7.0586183e-23 0.00020295644 200209.18
0.00048576482 0 0.00021500072 177343.59
0.00048826231 0 0.00021500091 171319.23
0.00049075981 0 0.00021500093 169024.77
0.0004932573 0 0.00021500092 168760.88
0.0004957548 0 0.0002150009 168445.84
0.00049825229 0 0.00021500101 193368.82
0.00038960507 0 0.00022249913 201558.86
0.00038961146 0 0.00022249937 180343.41
0.00040459678 0 0.00022249979 208044.03
0.00040709571 0 0.0002224987 181784.2
0.00041707955 0 0.00022249894 184557.99
0.00041709076 0 0.00022249684 183023.64
0.00042457338 0 0.00022249941 184636.03
0.00042705985 0 0.00022249747 198651.43
0.00042708435 0 0.00022249749 197617.27
0.00042957183 0 0.00022249962 198302.99
0.00043456415 0 0.00022249983 199656.43
0.00043705269 0 0.00022249702 189436.43
0.00043708463 0 0.0002224972 206225.33
0.0004395634 0 0.00022249926 197456.93
0.00044455152 0 0.00022249993 219017.91
0.00044704879 0 0.00022249916 196673.45
0.00044954478 0 0.00022249974 215555.24
0.0004495509 0 0.00022249992 211638.58
0.00045455007 0 0.00022249905 200617.27
0.00046453543 0 0.0002224994 169939.34
0.00037712145 0 0.00022499903 167566
0.00037957836 0 0.00022499742 211336.44
0.00037962488 0 0.00022499448 167875.78
0.00038710944 0 0.00022499397 175216.43
0.00038960261 0 0.0002249668 195286.06
0.00038961458 0 0.00022498947 179290.52
0.00039210782 0 0.00022499911 184239.03
0.00039710085 0 0.00022251804 209628.51
0.00039711008 0 0.000222522 185424.82
0.00039960092 -7.0586242e-23 0.00022250192 176722.81
0.00040458432 0 0.00022250585 174119.24
0.00040461709 -7.0589933e-23 0.00022250745 186343.44
0.00040710355 0 0.00022250506 178367.75
0.00040960013 7.0587825e-23 0.00022250244 194665.34
0.0004145834 0 0.00022250351 177877.05
0.00041707556 0 0.00022251017 169312.93
0.00041708957 -7.0587275e-23 0.00022251252 172972.64
0.00041958324 7.0586624e-23 0.00022250134 181076.15
0.00042457198 0 0.00022250158 175059.85
0.00042705786 0 0.00022250322 196716.56
0.00042708683 -7.0588446e-23 0.00022250483 186732.79
0.00042957858 7.0587489e-23 0.00022250162 200191.24
0.00043456086 0 0.00022250081 199604.84
0.00043705353 0 0.00022250242 192541.15
0.00043708353 7.0589476e-23 0.00022250211 209247.12
0.00043957377 0 0.00022250209 204138.12
0.00044207574 8.8214063e-20 0.00022250068 216463.27
0.00044704716 0 0.00022250293 174470.06
0.00044954201 0 0.00022250828 168912.9
0.00044955617 -7.0587047e-23 0.00022250367 170624.8
0.00045205468 7.05872e-23 0.0002225027 184386.09
0.0004545524 -7.0587228e-23 0.00022250371 176934.77
0.00045704657 0 0.00022250298 169881.19
0.00046203678 0 0.00022250129 174321.71
0.00046453214 0 0.00022250712 182666.24
0.00046453721 0 0.00022250984 197122.09
0.00047452486 0 0.00022250038 184496.93
0.00047702132 0 0.00022251219 210554.4
0.00047702384 0 0.00022499161 203941.61
0.00037711949 0 0.00022500276 168716.66
0.00037715733 7.0592598e-23 0.00022500528 203631.6
0.00037962431 7.058688e-23 0.0002250036 169154.49
0.00044954803 0 0.00022500091 178519.68
0.00044955106 -7.0586246e-23 0.00022500048 179371.18
0.00046453386 0 0.00022500037 188662.75
0.0004645356 -7.058617e-23 0.00022500054 169084.9
0.00047702136 0 0.00022500035 190247.18
0.00047702391 -7.0586288e-23 0.00022500094 170757.35
0.00047952031 0 0.00022500024 169831.18
0.00037710853 0 0.00023249842 208419.53
0.00037712624 0 0.00023249855 183627.81
0.0003846108 0 0.00023249863 188210.74
0.00038709989 0 0.00023249723 197506.76
0.00038712736 0 0.00023249774 204538.5
0.00038961651 0 0.00023249704 179412.73
0.00039709874 0 0.00023249756 170693.69
0.00039958293 0 0.00023249685 200882.99
0.00039961499 0 0.00023249484 186570.47
0.00040211695 0 0.00023249831 211114.35
0.00040461557 0 0.00023249963 218698.3
0.00040958388 0 0.00023249668 174737.6
0.00041207863 0 0.00023249169 168953.46
0.0004120952 0 0.00023249266 168758.5
0.00041459387 0 0.00023249577 177784.54
0.00041710208 0 0.00023249904 214987.21
0.00042206527 0 0.00023249815 204167.52
0.00042456206 0 0.00023249935 215197.61
0.00042458519 0 0.00023249782 198038.86
0.00042707971 0 0.0002324993 210472
0.00043206137 0 0.00023249944 211076.16
0.00043456097 0 0.00023249966 212094.41
0.00043705087 0 0.00023249965 217805.8
0.00043956146 0 0.00023249956 190225.21
0.00044705154 0 0.00023249967 186638.78
0.00044953825 0 0.00023249993 219879.43
0.00044955269 0 0.00023249898 183856.61
0.00045954817 0 0.00023249877 204780.01
0.0004745247 0 0.00023249976 169636.97
0.00047702164 0 0.00023249962 180025.12
0.00037709454 0 0.00023250859 188805.53
0.00037713223 0 0.00023250545 173907.24
0.00037962643 -7.0587274e-23 0.00023250295 178763.24
0.00038460751 0 0.00023250297 182632.62
0.0003870963 0 0.00023250379 195610.17
0.00038713094 0 0.00023250262 204933.92
0.00038961806 7.058754e-23 0.00023250429 175154.11
0.00039212178 -7.058865e-23 0.00023250131 210511.21
0.00039709837 0 0.00023250177 180553.06
0.00039959293 0 0.00023250195 192007.49
0.000399617 0 0.00023250081 215246.59
0.00040210312 0 0.00023250133 195790.44
0.00040460589 -7.0587978e-23 0.00023250048 216049.55
0.00040958696 0 0.00023250063 198914.35
0.00041208335 0 0.00023250055 206361.15
0.00041209242 7.0586922e-23 0.00023250053 209361.36
0.00041459047 0 0.0002325005 210967.39
0.00041956624 0 0.0002325005 216608.17
0.00042206905 0 0.00023250134 203471.77
0.00042454141 0 0.00023250083 216811.8
0.0004245814 7.0587142e-23 0.0002325017 193114.37
0.00042708427 7.0588023e-23 0.00023250159 205953.4
0.00043205995 0 0.0002325014 200780.58
0.0004345571 0 0.00023250345 180158.94
0.00043458294 -7.0588992e-23 0.00023250108 213927.14
0.00043706946 7.0587203e-23 0.00023250226 188136.9
0.00043957179 -7.0587973e-23 0.00023250143 207384.53
0.00044207262 0 0.00023250038 217984.38
0.00044704736 0 0.0002325015 190884.43
0.00044954371 0 0.00023250295 178578.9
0.00044955414 -7.0586728e-23 0.00023250211 176550.65
0.00045204846 0 0.00023250269 185740.87
0.00045954561 0 0.00023250073 206995.61
0.00046203788 7.0586137e-23 0.00023250023 170589.64
0.00047452469 0 0.00023250075 181810.27
0.00048826231 0 0.00023250014 189536.46
0.00049075981 0 0.00023250019 188302.56
0.0004932573 0 0.00023250015 187788.75
0.0004957548 0 0.00023250015 187442.19
0.00049825229 0 0.00023250013 213066.26
0.00049949735 0 0.00024003106 209339.3
0.00038713296 0 0.00025499805 209769.57
0.00039709071 0 0.00025254136 190784.49
0.00039711138 7.0587657e-23 0.00025252717 187781.43
0.00041957893 0 0.00025499887 168647.53
0.00042204275 0 0.00025499775 212385.43
0.00046950072 0 0.00025250086 216824.73
0.00047200552 0 0.00025250097 215576.98
0.00047205991 0 0.00025250056 218116.38
0.00047452859 7.0586612e-23 0.00025250278 169643.32
0.00047702309 7.0586166e-23 0.0002525025 196587.14
0.00048452974 7.0588226e-23 0.00025250085 214850.29
0.00048701578 -7.0586555e-23 0.00025250099 190283.24
0.00049200644 0 0.00025250005 215108.53
0.00049450406 0 0.00025250013 205066.55
0.00038710965 0 0.00025500254 168751.94
0.0003871551 0 0.00025500894 197484.97
0.00039710135 0 0.00025500113 168794.36
0.00039710517 7.0586553e-23 0.0002550025 168925.21
0.00040957873 0 0.00025749853 206807.02
0.00040959128 0 0.00025749873 168841.33
0.00041957648 0 0.00025500363 169044.45
0.0004196491 -7.0597701e-23 0.00025500311 213442.82
0.00043455656 0 0.00025748709 170944.03
0.00043457103 0 0.00025748984 170776.47
0.00045204988 0 0.0002574973 169122.19
0.00049450795 0 0.00025749533 167779.5
0.00040956166 0 0.00025751347 178212.3
0.00040959245 0 0.00025750349 170080.89
0.00043456023 0 0.00025750487 169163.2
0.00043456953 0 0.00025750454 168984.86
0.00044455371 0 0.00025752397 214340.88
0.00044455698 0 0.00025754984 214538.94
0.00045204553 0 0.00025750185 168864.75
0.00045205442 -7.058716e-23 0.00025750851 169640.83
0.00045953613 0 0.00025751356 191663.42
0.00045954313 -7.058656e-23 0.00025756051 213272.42
0.000494507 0 0.00025999805 166088.42
0.00044455627 0 0.00026000171 169724.51
0.00045954135 0 0.00026000164 169379.26
0.00049450888 -7.0586633e-23 0.00026004893 206208.82
0.00047014117 -7.0677799e-23 0.0002625001 198385.57
0.00047211015 -7.0598435e-23 0.00026250014 216971.07
0.00047456184 0 0.00026250016 219219.33
0.000477098 7.0597249e-23 0.00026250013 217413.97
0.00048201016 0 0.00026250026 217401.48
0.0004820373 0 0.00026250016 219980.45
0.00048451641 7.0586284e-23 0.00026250103 169939.66
0.00048701266 7.0586102e-23 0.00026250037 180378.48
0.0004944901 0 0.00026251023 169788.98
0.0004945213 0 0.00026251199 165188.6
0.00042209065 0 0.00026749771 201827.46
0.00042210884 -7.059132e-23 0.00026750344 207597.45
0.00042457572 -7.0586199e-23 0.00026750059 168700.09
0.00039210527 0 0.00027249774 168107.56
0.00039211514 0 0.0002724934 168540.03
0.00047203442 0 0.00027249725 183098.89
0.00039210131 0 0.00027251288 177633.2
0.00039211963 0 0.00027251737 170339.83
0.00043456319 0 0.00027499619 178067.04
0.00043457726 0 0.00027498156 170958.89
0.00046453535 0 0.00027499974 170020.13
0.00047203113 0 0.00027250137 184615.07
0.00047951924 0 0.00027250068 169351.56
0.00048201113 0 0.00027251004 170703.61
0.00048201814 -7.0586172e-23 0.00027250149 181302.33
0.00043456715 7.0586429e-23 0.00027500205 168929.4
0.000449521 0 0.00027749875 215577.51
0.00044955133 0 0.00027749855 169083.2
0.00046453647 0 0.0002774945 193614.73
0.00042207726 0 0.00027750173 206509.75
0.00042456558 2.3326828e-18 0.00027751579 171175.74
0.00042457579 1.1552654e-21 0.00027750223 186131.59
0.00044953112 0 0.00027750084 215832.75
0.00044955081 0 0.00027750109 169710.84
0.00045704025 0 0.00027999664 170577.31
0.00045704913 0 0.00027999762 185840.9