# interfaceEnergyFluxGas  FACE_DATA 2542
# x  y  z  interfaceEnergyFluxGas
2.499848e-06 -1.4500945e-21 7.508494e-05 -2.1115665e-09
2.5069347e-06 8.1814339e-24 7.7551611e-05 -2.7364951e-09
2.4486652e-06 0 8.0010754e-05 -4.1658316e-09
2.5195126e-06 0 8.0034505e-05 -3.3466571e-09
2.5125287e-06 9.6666681e-24 8.4942903e-05 -3.9619433e-09
2.5093772e-06 -9.2054304e-24 8.737639e-05 -3.5523185e-09
2.5120776e-06 -2.1707744e-23 8.7564105e-05 -3.3315745e-09
2.4864865e-06 3.1094727e-23 9.2464464e-05 -7.0850776e-09
2.5118312e-06 -2.4333942e-24 9.2383587e-05 -3.7548771e-09
2.9503758e-07 -4.4116299e-24 9.4775182e-05 -2.9578183e-09
2.5209607e-06 0 9.4905568e-05 -3.5048721e-09
1.1328801e-07 8.547533e-24 9.6911213e-05 -2.2980777e-09
2.5066957e-06 0 9.5029865e-05 -2.7820521e-09
0.00017384045 0 1.2501413e-06 -6.0825159e-10
0.00017397241 0 3.7501832e-06 -1.0133738e-09
0.00017412686 0 6.2501544e-06 -1.2060589e-09
0.00017421159 0 8.7500352e-06 -1.0176337e-09
0.00017417322 1.7652912e-23 1.1249849e-05 -8.4092191e-10
0.00017396564 1.7660509e-23 1.374967e-05 -6.3536988e-10
0.00017362901 0 1.6249577e-05 -7.3521259e-10
0.00017327514 0 1.8749544e-05 -1.9848534e-09
0.0001728754 0 2.1249508e-05 -1.1550455e-09
0.00017229111 0 2.4788704e-05 -9.347634e-10
0.00017250688 -1.7664863e-23 2.3545392e-05 -1.5015865e-10
0.00017202642 0 2.6249499e-05 -6.4275277e-10
0.00017162755 0 2.8749543e-05 -1.2229808e-09
0.00017126682 0 3.1249562e-05 -1.5270759e-09
0.00017089257 1.7666781e-23 3.3749522e-05 -3.8904585e-10
0.00017046026 -1.7671264e-23 3.6249416e-05 5.0000975e-10
0.00016974229 0 3.9625944e-05 -1.0861724e-09
0.00017003382 -1.7667664e-23 3.839583e-05 -1.2457135e-09
0.00016931993 1.768138e-23 4.1249177e-05 -1.4792621e-09
0.00016859297 -1.7683502e-23 4.3749127e-05 -1.5641815e-09
0.00016789752 1.7684629e-23 4.62491e-05 -5.7393344e-10
0.00016704386 0 4.9113218e-05 -1.4580455e-10
0.0001674497 0 4.7867941e-05 -3.3235944e-10
0.00016627795 0 5.1248936e-05 -9.3276856e-10
0.00016544116 -1.7692178e-23 5.3748922e-05 -2.1694142e-09
0.0001644935 0 5.6540795e-05 -5.2820431e-10
0.00016493908 1.7657652e-23 5.5293498e-05 -2.95727e-09
0.0001636477 0 5.8748828e-05 -7.188912e-10
0.00016230901 0 6.2425576e-05 -1.0481107e-09
0.00016278602 0 6.1177441e-05 -2.0968278e-09
0.00016175749 -1.7701279e-23 6.3748707e-05 -1.0784028e-09
0.00016072842 -1.7704067e-23 6.6248641e-05 1.4142104e-10
0.00015948547 0 6.9190227e-05 -6.6312883e-10
0.00016003535 -1.7668052e-23 6.794825e-05 5.8966551e-10
0.00015853735 0 7.1248496e-05 -1.0746696e-09
0.00015706688 0 7.4423564e-05 -1.8009368e-09
0.00015766798 -1.7682923e-23 7.3182782e-05 -2.2060415e-09
0.00015615418 -1.7717131e-23 7.6248333e-05 -2.3487494e-09
0.00015453957 0 7.9417371e-05 -1.7547792e-09
0.00015519873 1.768671e-23 7.8180653e-05 -3.0928071e-09
0.00015355696 1.7725908e-23 8.1248125e-05 -2.7460886e-09
0.00015188081 0 8.4177147e-05 -1.8281375e-09
0.00015260111 0 8.2945889e-05 -3.7236856e-09
0.00015071766 -1.7732298e-23 8.6247975e-05 -3.0269618e-09
0.00014913157 0 8.8841852e-05 -1.6731047e-09
0.00014991179 0 8.7600971e-05 -4.7155751e-09
0.00013986012 0 9.0000979e-05 -1.1152467e-09
0.00014712633 0 9.2072863e-05 -9.4750304e-10
0.00014788587 1.7710088e-23 9.0852616e-05 -1.2518161e-09
0.00017734376 0 9.0007704e-05 0
0.00014604616 -1.7740921e-23 9.3747771e-05 -7.5264231e-10
0.00014417686 0 9.6549322e-05 -4.6468111e-10
0.00014505952 0 9.5296843e-05 -7.6374375e-10
0.00014208607 0 9.9607213e-05 -3.8878217e-10
0.00014295496 1.7720169e-23 9.836456e-05 -1.0840296e-09
0.0002839572 0 8.2500842e-05 0
0.00028596557 0 8.2502973e-05 0
0.00028846305 0 8.2504296e-05 0
0.00029096054 0 8.2504529e-05 0
0.00029345802 0 8.2504329e-05 0
0.00029595551 0 8.2504165e-05 0
0.00029845299 0 8.2504126e-05 0
0.00030095048 0 8.2504137e-05 0
0.00030344796 0 8.2504139e-05 0
0.00030594545 0 8.2504126e-05 0
0.00030844294 0 8.250411e-05 0
0.00031094042 0 8.2504098e-05 0
0.00031343791 0 8.2504088e-05 0
0.0003159354 0 8.2504079e-05 0
0.00031843288 0 8.250407e-05 0
0.00032093037 0 8.2504062e-05 0
0.00032342786 0 8.2504055e-05 0
0.00032592534 0 8.2504047e-05 0
0.00032842283 0 8.2504039e-05 0
0.00033092032 0 8.2504032e-05 0
0.00033341781 0 8.2504027e-05 0
0.0003359153 0 8.250402e-05 0
0.00033841279 0 8.2504014e-05 0
0.00034091027 0 8.2504009e-05 0
0.00034340776 0 8.2504004e-05 0
0.00034590525 0 8.2503999e-05 0
0.00034840274 0 8.2503993e-05 0
0.00035090023 0 8.2503987e-05 0
0.00035339772 0 8.2503981e-05 0
0.00035589521 0 8.2503975e-05 0
0.0003583927 0 8.2503968e-05 0
0.00036089019 0 8.2503964e-05 0
0.00036338768 0 8.250396e-05 0
0.00036588517 0 8.2503955e-05 0
0.00036838266 0 8.250395e-05 0
0.00037088015 0 8.2503947e-05 0
0.00037337764 0 8.2503937e-05 0
0.00037587513 0 8.2503938e-05 0
0.00037837262 0 8.2503935e-05 0
0.00038087011 0 8.2503932e-05 0
0.00038336761 0 8.2503928e-05 0
0.0003858651 0 8.2503924e-05 0
0.00038836259 0 8.2503919e-05 0
0.00039086008 0 8.2503914e-05 0
0.00039335757 0 8.2503909e-05 0
0.00039585506 0 8.2503904e-05 0
0.00039835255 0 8.2503899e-05 0
0.00040085005 0 8.2503895e-05 0
0.00040334754 0 8.250389e-05 0
0.00040584503 0 8.2503886e-05 0
0.00040834252 0 8.2503882e-05 0
0.00041084002 0 8.2503878e-05 0
0.00041333751 0 8.2503875e-05 0
0.000415835 0 8.2503871e-05 0
0.00041833249 0 8.2503867e-05 0
0.00042082999 0 8.2503864e-05 0
0.00042332748 0 8.250386e-05 0
0.00042582497 0 8.2503856e-05 0
0.00042832246 0 8.2503853e-05 0
0.00043081996 0 8.2503849e-05 0
0.00043331745 0 8.2503846e-05 0
0.00043581494 0 8.2503843e-05 0
0.00043831244 0 8.250384e-05 0
0.00044080993 0 8.2503837e-05 0
0.00044330742 0 8.2503834e-05 0
0.00044580492 0 8.2503831e-05 0
0.00044830241 0 8.2503828e-05 0
0.0004507999 0 8.2503824e-05 0
0.0004532974 0 8.2503819e-05 0
0.00045579489 0 8.2503812e-05 0
0.00045829238 0 8.2503805e-05 0
0.00046078988 0 8.2503798e-05 0
0.00046328737 0 8.250379e-05 0
0.00046578487 0 8.2503781e-05 0
0.00046828236 0 8.2503772e-05 0
0.00047077985 0 8.2503764e-05 0
0.00047327735 0 8.2503758e-05 0
0.00047577484 0 8.2503752e-05 0
0.00047827234 0 8.2503746e-05 0
0.00048076983 0 8.2503738e-05 0
0.00048326733 0 8.250373e-05 0
0.00048576482 0 8.2503722e-05 0
0.00048826231 0 8.2503715e-05 0
0.00049075981 0 8.2503714e-05 0
0.0004932573 0 8.2503712e-05 0
0.0004957548 0 8.2503667e-05 0
0.00049825229 0 8.2503817e-05 0
6.2438415e-05 0 0.00010500203 -3.279809e-09
7.7422515e-05 0 0.00011251155 -7.5405971e-09
0.00010240054 0 0.00011750107 -3.9937605e-09
0.00012397321 0 0.00012157475 -1.2266716e-09
0.00011238808 0 0.00012250022 -1.4831689e-09
0.00012146123 0 0.00012410147 -4.613669e-10
0.00012273015 -1.7697177e-23 0.00012285185 -1.4399625e-11
0.00011892156 0 0.00012651679 -6.3095804e-10
0.00012020797 -1.7694622e-23 0.00012531414 -1.2754367e-09
0.00011614036 0 0.00012899591 -1.7826628e-09
0.00011764701 0 0.00012773888 -2.0143657e-09
9.9907136e-05 0 0.00013000063 -2.4963542e-09
0.00010239811 0 0.00013000016 -1.469034e-09
0.00011221806 0 0.00013235979 -3.6539119e-11
0.00011364082 0 0.00013117172 -9.0513577e-10
0.00011493106 1.7653591e-23 0.0001300395 -7.813052e-10
0.00010943816 0 0.00013461831 -3.0542463e-10
0.00011097135 0 0.00013337738 -4.4043538e-12
0.00010655772 0 0.00013688827 -1.5586806e-09
0.00010819281 1.7776734e-23 0.00013563452 -5.3190683e-10
0.00010365763 0 0.00013907206 -2.8816073e-09
0.00010531891 0 0.00013781858 -4.4468196e-09
9.9372682e-05 0 0.00014213395 -1.3042145e-09
0.00010115389 0 0.00014089454 -1.9489705e-09
0.00010240344 1.7647544e-23 0.00014000436 -3.2468178e-09
9.6296894e-05 0 0.00014424743 -2.0657266e-09
9.8137421e-05 0 0.00014300231 -2.4132356e-09
9.1838157e-05 0 0.00014713928 -2.0098405e-09
9.36618e-05 0 0.00014599176 -2.5491298e-09
9.5048708e-05 1.7673187e-23 0.00014509544 -3.0491117e-09
8.7354012e-05 0 0.00014996514 -4.5800521e-10
8.8667113e-05 0 0.00014913535 -1.140345e-09
9.06025e-05 -1.7781058e-23 0.00014793509 -2.3991156e-09
8.3925237e-05 0 0.00015193039 -7.056627e-10
8.6120922e-05 8.9462455e-24 0.00015069906 -3.0616024e-10
7.9148278e-05 0 0.00015458902 -1.0246625e-09
8.1175154e-05 0 0.0001535109 -8.7345675e-10
8.2688668e-05 0 0.00015265369 -7.6426818e-10
7.4166461e-05 0 0.00015713206 -2.0459789e-09
7.6180574e-05 0 0.00015613436 -2.9719956e-09
7.7912194e-05 -8.8786009e-24 0.00015525524 -3.4461672e-09
6.8941251e-05 0 0.00015955582 -2.4114872e-10
7.1186053e-05 0 0.00015852736 -9.297423e-10
7.2926668e-05 0 0.00015773678 -3.3480832e-09
6.2204595e-05 0 0.00016240893 -3.2949308e-10
6.3694412e-05 0 0.00016177737 2.4479909e-10
6.6191604e-05 0 0.00016075086 -4.5985516e-10
6.769471e-05 -8.8573923e-24 0.0001601153 -1.6578506e-09
5.6361096e-05 0 0.00016460409 -4.9460816e-10
5.8700106e-05 0 0.00016370589 -7.2954189e-10
6.0968665e-05 -8.971312e-24 0.00016289185 2.5572111e-10
4.8849404e-05 0 0.00016714105 -9.0623073e-10
5.1208902e-05 0 0.00016632375 -3.1672638e-10
5.370593e-05 0 0.00016551731 9.938222e-10
5.5107173e-05 0 0.00016505764 1.1983408e-09
8.4916354e-05 0 0.00016500355 0
3.9222243e-05 0 0.00016981872 -1.6429393e-09
4.1221364e-05 0 0.00016928304 -1.4874819e-09
4.3718143e-05 0 0.00016858144 -5.1528923e-10
4.6215e-05 0 0.00016792159 -3.6977284e-10
4.7592722e-05 -8.8492304e-24 0.00016754374 -1.2844653e-09
2.3917485e-05 0 0.00017232869 1.2872275e-09
2.6243571e-05 0 0.00017195754 6.6506335e-10
2.8739348e-05 0 0.00017159382 -4.7334481e-10
3.12354e-05 0 0.00017124624 -1.3884989e-09
3.3731667e-05 0 0.00017090516 -1.8889864e-09
3.6228103e-05 0 0.00017046327 -1.7860002e-09
3.7983893e-05 0 0.00017012056 -1.9522306e-09
0.00011989089 -1.7648123e-23 0.00017000386 0
1.665e-06 0 0.00017280588 2.8767451e-09
3.885e-06 0 0.00017299476 3.2025075e-09
6.327e-06 0 0.00017326402 2.5621083e-09
8.8007143e-06 0 0.00017347923 1.8706165e-09
1.1285e-05 0 0.0001735469 2.9628175e-09
1.3774091e-05 0 0.0001734879 1.6986931e-09
1.6265769e-05 0 0.00017332393 1.2983736e-09
1.8759e-05 0 0.00017305235 9.0899596e-10
2.1253235e-05 0 0.00017273867 9.3884389e-10
2.2653543e-05 -4.4458255e-24 0.00017252738 1.063633e-09
3.4974031e-05 -4.412769e-24 0.0001975001 0
0.00014092731 1.7758394e-23 0.00010124736 -6.5623908e-10
0.00013901654 0 0.00010386466 -1.3776739e-09
0.00013994797 1.765761e-23 0.00010261961 -7.5377775e-10
0.0001368029 0 0.00010677785 -9.1426889e-10
0.00013777155 1.7698861e-23 0.00010553497 -2.5952004e-09
0.00013455589 0 0.00010961661 -2.7146669e-10
0.00013555777 -1.7736551e-23 0.00010836867 -1.0346855e-09
0.00020980998 0 0.00010750729 0
0.00013227639 0 0.00011239034 -4.1004423e-10
0.00013331053 1.7771059e-23 0.0001111408 -4.0932786e-11
0.00013112681 0 0.00011374661 -8.773789e-10
0.00012885664 0 0.00011635442 -1.7247809e-09
0.00012996622 1.765958e-23 0.00011511003 -3.730431e-09
0.00012644749 0 0.00011900779 -1.4223372e-09
0.00012761281 0 0.00011776321 -2.0138759e-09
0.00012519776 0 0.00012033524 -1.9180321e-09
0.0001798288 0 0.00017002152 0
0.00025974539 0 0.0001075128 0
0.00025975175 3.5294635e-23 0.00012001175 0
0.00026973268 3.529339e-23 0.00013000638 0
0.00026723502 -3.5293372e-23 0.00013750601 0
0.00036588517 0 0.00019000047 0
0.00036838266 0 0.00019000122 0
0.00037088015 0 0.0001900015 0
0.00037337764 0 0.00019000152 0
0.00047827234 0 0.00016250067 0
0.00048076983 0 0.00016250082 0
0.00048326733 0 0.00016250084 0
0.00048576482 0 0.00016250084 0
0.00048826231 0 0.00016250084 0
0.00049075981 0 0.00016250083 0
0.0004932573 0 0.00016250083 0
0.0004957548 0 0.00016250082 0
0.00049825229 0 0.00016250091 0
0.00040460135 7.0587187e-23 0.0001875095 0
0.00037587513 0 0.0001900015 0
0.00037837262 0 0.00019000149 0
0.00038087011 0 0.00019000149 0
0.00038336761 0 0.00019000148 0
0.0003858651 0 0.00019000147 0
0.00038836259 0 0.00019000153 0
0.00039086008 0 0.00019000161 0
0.00039335757 0 0.00019000074 0
0.00039674223 0 0.00019000061 0
0.00039750687 7.0657859e-23 0.00019000304 0
0.00039962963 -7.0591313e-23 0.00019000101 0
0.00010489636 -1.7646748e-23 0.00021500264 0
0.00010239819 -1.7646638e-23 0.00022000145 0
9.2417232e-05 1.7648378e-23 0.00023002507 0
0.00012238159 0 0.00023000145 0
2.4975433e-05 0 0.00027500327 0
7.2428066e-05 0 0.00027500149 0
3.2468058e-05 0 0.00028249802 0
3.246751e-05 0 0.00028996847 0
5.7442551e-05 -3.6119433e-20 0.00029250141 0
3.4965017e-05 4.4116321e-24 0.00029507589 0
0.00022479851 0 0.00020998141 0
0.00024474528 0 0.00020756677 0
0.00024477529 -3.5295965e-23 0.00020773885 0
0.00021732929 0 0.00021246462 0
0.00022475462 0 0.00021002053 0
0.00022484467 -3.5303975e-23 0.0002100672 0
0.00024475987 -3.5293742e-23 0.00021000477 0
0.00021734718 3.5303541e-23 0.0002125499 0
0.00024223803 0 0.00021748438 0
0.00024226496 0 0.00021749284 0
0.0002422122 0 0.00021759816 0
0.00024226811 0 0.00021756193 0
0.00014987819 0 0.00022252817 0
0.00016736309 1.7649745e-23 0.00022251113 0
0.00017485267 3.5298624e-23 0.00022251007 0
0.00015235584 1.7647486e-23 0.00024002074 0
0.000164863 0 0.00024001016 0
0.00017984561 3.5298065e-23 0.00024250932 0
0.00016984896 -1.764849e-23 0.00025250908 0
0.00016483569 0 0.00025500035 0
0.00024226519 3.529416e-23 0.00025501815 0
0.00022228986 -3.5295002e-23 0.00025751851 0
0.00023496344 3.5322838e-23 0.00025750079 0
0.00020586506 0 0.00026000008 0
0.00020819506 3.5445821e-23 0.00026000017 0
0.00021200129 0 0.0002600001 0
0.00021469641 0 0.00026000011 0
0.00021491111 -3.5313745e-23 0.00026000084 0
0.00021729244 3.5294654e-23 0.0002600003 0
0.00024227524 0 0.0002650065 0
0.00018245099 0 0.00026750114 0
0.00016989121 0 0.00027500051 0
0.00023976022 0 0.00028255434 0
0.00023976054 0 0.0002874696 0
0.00023976043 0 0.00028750607 0
0.00012987167 -1.7646746e-23 0.00029000425 0
0.00015484553 -1.764658e-23 0.00029000134 0
0.00023976021 -3.5293071e-23 0.00029000054 0
0.0001848248 0 0.00029250454 0
0.0002497484 3.5293266e-23 0.00029499836 0
0.00019731049 0 0.00029500128 0
0.00023976072 0 0.00029749806 0
0.00024974578 -3.5293636e-23 0.00029500739 0
0.00020978593 0 0.00029999529 0
0.00020981653 0 0.00029996234 0
0.00023976015 -3.5293061e-23 0.00029750217 0
0.00025224215 0 0.00020504618 -4.0404268e-10
0.00025226688 0 0.0002052772 0
0.00025225106 -3.5293538e-23 0.00020750346 0
0.0002672196 0 0.00020998676 0
0.00026728287 0 0.00020997616 0
0.00027726761 0 0.00020999181 0
0.00028719979 0 0.00020998437 0
0.00028734527 0 0.00020996563 0
0.00029719495 0 0.00020754713 -3.3073578e-10
0.00029722504 3.5295716e-23 0.00020770697 0
0.00031457975 0 0.00020998166 0
0.00031469308 0 0.00020999117 0
0.00026720792 0 0.00021002993 0
0.00026730239 0 0.00021004879 0
0.00027742195 -3.5318407e-23 0.00021002584 0
0.00027972267 0 0.00021000255 0
0.00028720679 0 0.00021000613 8.0042317e-10
0.00028735434 3.5310458e-23 0.00021000496 6.2428089e-10
0.00029720568 -3.5293417e-23 0.00021000317 0
0.00031237463 0 0.00021000168 0
0.00031468872 3.5293456e-23 0.00021000377 0
0.00034214975 0 0.00022248381 0
0.00034216375 0 0.00022248592 0
0.00034215338 0 0.00022250435 0
0.00034216212 0 0.00022250464 0
0.00035962886 0 0.00022499703 0
0.00035964331 0 0.00022499694 0
0.00036961893 0 0.00022498843 0
0.0003696376 0 0.0002249909 0
0.00027724508 -3.5295914e-23 0.00022502259 0
0.00035714221 0 0.00022500072 0
0.00035962762 0 0.00022501873 0
0.00035964353 0 0.00022503225 0
0.00036962039 0 0.00022500605 0
0.00036963929 -7.0587853e-23 0.00022500804 0
0.00035964035 0 0.00022750046 0
0.00037461986 7.0587047e-23 0.00023249552 0
0.00037462108 0 0.00023250339 0
0.00034465526 0 0.0002353428 0
0.00034465506 0 0.0002376852 0
0.00030469857 3.5293453e-23 0.00024000099 0
0.00034465503 0 0.00024247421 0
0.00034465502 0 0.00024498741 0
0.00034465504 0 0.00024503376 0
0.00036718988 0 0.00024749945 0
0.00033216974 0 0.00024750521 0
0.00034465501 0 0.00024751314 0
0.00036715546 7.0590493e-23 0.00024750019 0
0.00035715014 0 0.00025500026 0
0.00036213545 0 0.00025500073 0
0.00036464407 0 0.0002574912 0
0.00036462611 0 0.00025750286 0
0.00036467607 0 0.00025751693 0
0.00027224236 0 0.0002600055 0
0.00028222708 0 0.00026000425 0
0.00035714176 0 0.00026249947 0
0.00035715156 0 0.00026249887 0
0.00035714211 0 0.00026250184 0
0.00035714748 0 0.00026250535 0
0.00034964874 0 0.00026500236 0
0.00034965609 0 0.00026500265 0
0.00035214772 0 0.00026500029 0
0.00035464533 0 0.00026500045 0
0.00035214757 -7.0586092e-23 0.00026750115 0
0.0002659857 0 0.0002700001 0
0.00026842042 0 0.00027000002 0
0.00027098067 0 0.00027000001 0
0.00027347815 0 0.00027000001 0
0.00027597563 0 0.00027000001 0
0.00027847312 0 0.00027000001 0
0.00028029327 3.5365173e-23 0.00027000001 0
0.00028236479 0 0.00027000005 0
0.00028710824 0 0.00027000003 0
0.00028967722 0 0.00027000012 0
0.00028971568 3.5293731e-23 0.0002700001 0
0.00029220993 3.5293333e-23 0.00027000022 0
0.00032217753 -3.5293043e-23 0.00027001179 0
0.00035214743 0 0.00027249721 0
0.00035217058 0 0.00027248363 0
0.00035464652 0 0.00027249475 0
0.00031468998 -3.5293598e-23 0.00027251128 0
0.00035219632 -7.0595863e-23 0.00027250249 0
0.0003546484 0 0.00027250349 0
0.00029969308 0 0.00027749741 0
0.00029970199 0 0.00027749804 0
0.00030719408 0 0.0002756506 0
0.00033466502 0 0.00027749366 0
0.0002996909 0 0.00027750517 0
0.00029970264 3.5293351e-23 0.00027750264 0
0.00030719277 0 0.00027978011 0
0.0003545395 0 0.00027999907 0
0.00035464687 0 0.0002799981 0
0.00028970306 0 0.00028249067 0
0.00028972751 0 0.00028249061 0
0.00030719258 0 0.00028241997 0
0.00035459861 0 0.00028000727 0
0.00035464948 -7.058697e-23 0.00028000452 0
0.00028970611 0 0.00028251784 0
0.00028971906 -3.5294143e-23 0.00028252068 0
0.00029220923 0 0.00028499701 0
0.00030719254 0 0.00028253099 0
0.00033702327 0 0.00028250015 0
0.00033960466 0 0.00028250002 0
0.00033972163 3.5299442e-23 0.00028250004 0
0.00034242265 -3.5320361e-23 0.00028250066 0
0.00028221189 0 0.00028749825 0
0.00028221888 0 0.00028749859 0
0.0002921961 0 0.00028501588 0
0.00029222078 0 0.00028745988 0
0.00030719257 3.5293048e-23 0.00028505876 0
0.00028221209 0 0.00028750418 0
0.00028221808 0 0.00028999612 0
0.00029219006 0 0.00028751823 0
0.00029224267 0 0.00028753037 0
0.00030719253 0 0.00028997544 0
0.00036463082 0 0.00028754427 0
0.00036464432 7.0587884e-23 0.00028755158 0
0.00036713355 7.0586281e-23 0.0002875021 0
0.00025724255 -3.5293047e-23 0.00029003094 0
0.00028222094 0 0.00029249992 0
0.00028471601 0 0.00029249707 0
0.00030719252 0 0.00029248162 0
0.00033463241 0 0.00029248241 0
0.00033467165 0 0.00029249228 0
0.00034462947 0 0.00029247436 0
0.00034714523 0 0.00029249587 0
0.00024975565 0 0.00029499561 0
0.00025724264 0 0.00029495145 0
0.00027222468 0 0.00029499717 0
0.00027224376 0 0.00029499429 0
0.00028221699 0 0.00029499761 0
0.00028471246 0 0.00029499373 0
0.00028471987 0 0.0002949715 0
0.00030719251 -3.5293041e-23 0.0002925082 0
0.00033464534 0 0.00029250555 0
0.0003346694 3.5293503e-23 0.00029250439 0
0.00034465115 0 0.00029499362 0
0.00024975883 0 0.00029501054 0
0.00025724259 0 0.00029749112 0
0.00027222481 9.6650556e-18 0.00029500278 0
0.00027224089 0 0.00029500308 0
0.00030719251 0 0.000295013 0
0.00025724256 3.5293048e-23 0.00029750113 0
0.00030719252 0 0.00029997424 0
0.00031716203 0 0.00029999464 0
0.00031718508 0 0.00029999743 0
0.00045204817 7.0586183e-23 0.00020295644 0
0.00048576482 0 0.00021500072 0
0.00048826231 0 0.00021500091 0
0.00049075981 0 0.00021500093 0
0.0004932573 0 0.00021500092 0
0.0004957548 0 0.0002150009 0
0.00049825229 0 0.00021500101 0
0.00038960507 0 0.00022249913 0
0.00038961146 0 0.00022249937 0
0.00040459678 0 0.00022249979 0
0.00040709571 0 0.0002224987 0
0.00041707955 0 0.00022249894 0
0.00041709076 0 0.00022249684 0
0.00042457338 0 0.00022249941 0
0.00042705985 0 0.00022249747 0
0.00042708435 0 0.00022249749 0
0.00042957183 0 0.00022249962 0
0.00043456415 0 0.00022249983 0
0.00043705269 0 0.00022249702 0
0.00043708463 0 0.0002224972 0
0.0004395634 0 0.00022249926 0
0.00044455152 0 0.00022249993 0
0.00044704879 0 0.00022249916 0
0.00044954478 0 0.00022249974 0
0.0004495509 0 0.00022249992 0
0.00045455007 0 0.00022249905 0
0.00046453543 0 0.0002224994 0
0.00037712145 0 0.00022499903 0
0.00037957836 0 0.00022499742 0
0.00037962488 0 0.00022499448 0
0.00038710944 0 0.00022499397 0
0.00038960261 0 0.0002249668 0
0.00038961458 0 0.00022498947 0
0.00039210782 0 0.00022499911 0
0.00039710085 0 0.00022251804 0
0.00039711008 0 0.000222522 0
0.00039960092 -7.0586242e-23 0.00022250192 0
0.00040458432 0 0.00022250585 0
0.00040461709 -7.0589933e-23 0.00022250745 0
0.00040710355 0 0.00022250506 0
0.00040960013 7.0587825e-23 0.00022250244 0
0.0004145834 0 0.00022250351 0
0.00041707556 0 0.00022251017 0
0.00041708957 -7.0587275e-23 0.00022251252 0
0.00041958324 7.0586624e-23 0.00022250134 0
0.00042457198 0 0.00022250158 0
0.00042705786 0 0.00022250322 0
0.00042708683 -7.0588446e-23 0.00022250483 0
0.00042957858 7.0587489e-23 0.00022250162 0
0.00043456086 0 0.00022250081 0
0.00043705353 0 0.00022250242 0
0.00043708353 7.0589476e-23 0.00022250211 0
0.00043957377 0 0.00022250209 0
0.00044207574 8.8214063e-20 0.00022250068 0
0.00044704716 0 0.00022250293 0
0.00044954201 0 0.00022250828 0
0.00044955617 -7.0587047e-23 0.00022250367 0
0.00045205468 7.05872e-23 0.0002225027 0
0.0004545524 -7.0587228e-23 0.00022250371 0
0.00045704657 0 0.00022250298 0
0.00046203678 0 0.00022250129 0
0.00046453214 0 0.00022250712 0
0.00046453721 0 0.00022250984 0
0.00047452486 0 0.00022250038 0
0.00047702132 0 0.00022251219 0
0.00047702384 0 0.00022499161 0
0.00037711949 0 0.00022500276 0
0.00037715733 7.0592598e-23 0.00022500528 0
0.00037962431 7.058688e-23 0.0002250036 0
0.00044954803 0 0.00022500091 0
0.00044955106 -7.0586246e-23 0.00022500048 0
0.00046453386 0 0.00022500037 0
0.0004645356 -7.058617e-23 0.00022500054 0
0.00047702136 0 0.00022500035 0
0.00047702391 -7.0586288e-23 0.00022500094 0
0.00047952031 0 0.00022500024 0
0.00037710853 0 0.00023249842 0
0.00037712624 0 0.00023249855 0
0.0003846108 0 0.00023249863 0
0.00038709989 0 0.00023249723 0
0.00038712736 0 0.00023249774 0
0.00038961651 0 0.00023249704 0
0.00039709874 0 0.00023249756 0
0.00039958293 0 0.00023249685 0
0.00039961499 0 0.00023249484 0
0.00040211695 0 0.00023249831 0
0.00040461557 0 0.00023249963 0
0.00040958388 0 0.00023249668 0
0.00041207863 0 0.00023249169 0
0.0004120952 0 0.00023249266 0
0.00041459387 0 0.00023249577 0
0.00041710208 0 0.00023249904 0
0.00042206527 0 0.00023249815 0
0.00042456206 0 0.00023249935 0
0.00042458519 0 0.00023249782 0
0.00042707971 0 0.0002324993 0
0.00043206137 0 0.00023249944 0
0.00043456097 0 0.00023249966 0
0.00043705087 0 0.00023249965 0
0.00043956146 0 0.00023249956 0
0.00044705154 0 0.00023249967 0
0.00044953825 0 0.00023249993 0
0.00044955269 0 0.00023249898 0
0.00045954817 0 0.00023249877 0
0.0004745247 0 0.00023249976 0
0.00047702164 0 0.00023249962 0
0.00037709454 0 0.00023250859 0
0.00037713223 0 0.00023250545 0
0.00037962643 -7.0587274e-23 0.00023250295 0
0.00038460751 0 0.00023250297 0
0.0003870963 0 0.00023250379 0
0.00038713094 0 0.00023250262 0
0.00038961806 7.058754e-23 0.00023250429 0
0.00039212178 -7.058865e-23 0.00023250131 0
0.00039709837 0 0.00023250177 0
0.00039959293 0 0.00023250195 0
0.000399617 0 0.00023250081 0
0.00040210312 0 0.00023250133 0
0.00040460589 -7.0587978e-23 0.00023250048 0
0.00040958696 0 0.00023250063 0
0.00041208335 0 0.00023250055 0
0.00041209242 7.0586922e-23 0.00023250053 0
0.00041459047 0 0.0002325005 0
0.00041956624 0 0.0002325005 0
0.00042206905 0 0.00023250134 0
0.00042454141 0 0.00023250083 0
0.0004245814 7.0587142e-23 0.0002325017 0
0.00042708427 7.0588023e-23 0.00023250159 0
0.00043205995 0 0.0002325014 0
0.0004345571 0 0.00023250345 0
0.00043458294 -7.0588992e-23 0.00023250108 0
0.00043706946 7.0587203e-23 0.00023250226 0
0.00043957179 -7.0587973e-23 0.00023250143 0
0.00044207262 0 0.00023250038 0
0.00044704736 0 0.0002325015 0
0.00044954371 0 0.00023250295 0
0.00044955414 -7.0586728e-23 0.00023250211 0
0.00045204846 0 0.00023250269 0
0.00045954561 0 0.00023250073 0
0.00046203788 7.0586137e-23 0.00023250023 0
0.00047452469 0 0.00023250075 0
0.00048826231 0 0.00023250014 0
0.00049075981 0 0.00023250019 0
0.0004932573 0 0.00023250015 0
0.0004957548 0 0.00023250015 0
0.00049825229 0 0.00023250013 0
0.00049949735 0 0.00024003106 0
0.00038713296 0 0.00025499805 0
0.00039709071 0 0.00025254136 0
0.00039711138 7.0587657e-23 0.00025252717 0
0.00041957893 0 0.00025499887 0
0.00042204275 0 0.00025499775 0
0.00046950072 0 0.00025250086 0
0.00047200552 0 0.00025250097 0
0.00047205991 0 0.00025250056 0
0.00047452859 7.0586612e-23 0.00025250278 0
0.00047702309 7.0586166e-23 0.0002525025 0
0.00048452974 7.0588226e-23 0.00025250085 0
0.00048701578 -7.0586555e-23 0.00025250099 0
0.00049200644 0 0.00025250005 0
0.00049450406 0 0.00025250013 0
0.00038710965 0 0.00025500254 0
0.0003871551 0 0.00025500894 0
0.00039710135 0 0.00025500113 0
0.00039710517 7.0586553e-23 0.0002550025 0
0.00040957873 0 0.00025749853 0
0.00040959128 0 0.00025749873 0
0.00041957648 0 0.00025500363 0
0.0004196491 -7.0597701e-23 0.00025500311 0
0.00043455656 0 0.00025748709 0
0.00043457103 0 0.00025748984 0
0.00045204988 0 0.0002574973 0
0.00049450795 0 0.00025749533 0
0.00040956166 0 0.00025751347 0
0.00040959245 0 0.00025750349 0
0.00043456023 0 0.00025750487 0
0.00043456953 0 0.00025750454 0
0.00044455371 0 0.00025752397 0
0.00044455698 0 0.00025754984 0
0.00045204553 0 0.00025750185 0
0.00045205442 -7.058716e-23 0.00025750851 0
0.00045953613 0 0.00025751356 0
0.00045954313 -7.058656e-23 0.00025756051 0
0.000494507 0 0.00025999805 0
0.00044455627 0 0.00026000171 0
0.00045954135 0 0.00026000164 0
0.00049450888 -7.0586633e-23 0.00026004893 0
0.00047014117 -7.0677799e-23 0.0002625001 0
0.00047211015 -7.0598435e-23 0.00026250014 0
0.00047456184 0 0.00026250016 0
0.000477098 7.0597249e-23 0.00026250013 0
0.00048201016 0 0.00026250026 0
0.0004820373 0 0.00026250016 0
0.00048451641 7.0586284e-23 0.00026250103 0
0.00048701266 7.0586102e-23 0.00026250037 0
0.0004944901 0 0.00026251023 0
0.0004945213 0 0.00026251199 0
0.00042209065 0 0.00026749771 0
0.00042210884 -7.059132e-23 0.00026750344 0
0.00042457572 -7.0586199e-23 0.00026750059 0
0.00039210527 0 0.00027249774 0
0.00039211514 0 0.0002724934 0
0.00047203442 0 0.00027249725 0
0.00039210131 0 0.00027251288 0
0.00039211963 0 0.00027251737 0
0.00043456319 0 0.00027499619 0
0.00043457726 0 0.00027498156 0
0.00046453535 0 0.00027499974 0
0.00047203113 0 0.00027250137 0
0.00047951924 0 0.00027250068 0
0.00048201113 0 0.00027251004 0
0.00048201814 -7.0586172e-23 0.00027250149 0
0.00043456715 7.0586429e-23 0.00027500205 0
0.000449521 0 0.00027749875 0
0.00044955133 0 0.00027749855 0
0.00046453647 0 0.0002774945 0
0.00042207726 0 0.00027750173 0
0.00042456558 2.3326828e-18 0.00027751579 0
0.00042457579 1.1552654e-21 0.00027750223 0
0.00044953112 0 0.00027750084 0
0.00044955081 0 0.00027750109 0
0.00045704025 0 0.00027999664 0
0.00045704913 0 0.00027999762 0
0.00048201685 0 0.00027997489 0
0.00048201919 0 0.00027999282 0
0.00038462244 0 0.00028000358 0
0.00044205652 0 0.00028249982 0
0.00045703828 0 0.00028245821 0
0.00045704715 0 0.00028245786 0
0.00045954026 7.0586119e-23 0.00028000025 0
0.00046452905 0 0.0002800034 0
0.00046453729 7.0586427e-23 0.00028000689 0
0.00048200355 0 0.00028003194 0
0.00048202018 7.0586471e-23 0.00028001737 0
0.00043954892 0 0.00028499197 0
0.00043956173 0 0.00028499761 0
0.00044954965 0 0.00028499965 0
0.00044955115 0 0.00028499883 0
0.00045704615 7.0586642e-23 0.00028250107 0
0.00038460975 0 0.00028749462 0
0.00038462198 0 0.00028749257 0
0.00041455992 0 0.00028749965 0
0.00041709438 0 0.00028748926 0
0.00042457353 0 0.0002874988 0
0.00042703724 0 0.0002874947 0
0.00043955185 0 0.00028500124 0
0.00043956136 0 0.0002850007 0
0.00044954868 0 0.00028748803 0
0.00044955152 0 0.00028748959 0
0.00046205492 0 0.00028749036 0
0.00038460543 0 0.00028751695 0
0.00038462503 2.0209654e-18 0.00028751661 0
0.00041457654 0 0.0002875001 0
0.00041708714 7.0586865e-23 0.00028750411 0
0.00042457403 0 0.00028750076 0
0.00042706234 0 0.00028750238 0
0.00046202941 0 0.0002875253 0
0.00046207951 0 0.00028755261 0
0.00039211586 -7.0587584e-23 0.00029000263 0
0.00039959587 0 0.000294996 0
0.00039961109 0 0.00029499651 0
0.00047202728 0 0.00029499971 0
0.00039959896 0 0.00029500352 0
0.00039960869 0 0.00029500846 0
0.00043708573 0 0.00029749593 0
0.00047202795 0 0.00029749966 0
0.00039960261 0 0.00029750101 0
0.00043708976 7.059048e-23 0.00029750319 0
0.00043956118 -7.0586268e-23 0.00029750075 0
0.00046203524 0 0.00029999769 0
0.00046205722 0 0.00029999676 0
0.00047205365 0 0.00029999284 0
0.00047452577 0 0.00029999582 0
6.7436112e-05 8.8237325e-24 0.00030000666 0
9.2418292e-05 1.764858e-23 0.00030000379 0
5.9944655e-05 -8.823945e-24 0.00030750274 0
2.9063853e-06 0 0.00032239657 1.0840213e-09
4.4958342e-05 8.8239157e-24 0.00032000851 0
5.7443349e-05 -2.3524259e-21 0.00032002243 0
7.7422876e-05 3.5293211e-23 0.00032000099 0
2.8358814e-06 5.4597193e-24 0.00032259084 8.8624073e-10
5.0103734e-06 -8.4748577e-24 0.00032252315 2.4819426e-09
5.7443423e-05 -8.8234016e-24 0.00032251833 0
8.9912625e-05 1.7647035e-23 0.00032500686 0
1.4985022e-05 -2.132439e-18 0.00033007482 0
7.4944818e-05 -8.8255928e-24 0.00033000695 0
8.2417627e-05 0 0.00033009678 0
1.4985034e-05 0 0.00033498243 0
3.4970859e-05 9.1256494e-20 0.00033250458 0
9.4909581e-05 1.7647371e-23 0.00033501189 0
1.2480828e-05 0 0.00034000046 0
6.7443151e-05 0 0.0003400037 0
3.4968153e-05 0 0.00034500437 0
4.2461523e-05 4.4120479e-24 0.00034500248 0
7.7424263e-05 8.8234608e-24 0.00034750783 0
2.7713001e-06 0 0.000352439 3.1983936e-10
7.7566561e-06 0 0.00035246147 0
1.0038813e-05 0 0.00035244982 0
0.00011488472 0 0.00035249924 0
0.00011737434 -3.2155531e-19 0.00035249104 0
0.0001173848 0 0.00035248702 0
0.00011988236 0 0.00035249714 0
0.00012487103 -1.7647081e-23 0.00035249632 0
2.8084044e-06 -2.0484887e-23 0.00035255344 0
5.0583867e-06 2.7916787e-24 0.00035250141 1.8842971e-11
8.0250828e-06 1.1746494e-24 0.00035253634 8.1646902e-10
1.0041762e-05 5.5429146e-24 0.00035255752 7.7851058e-10
5.9940502e-05 -8.8233337e-24 0.00035250132 0
0.00011488425 0 0.00035250139 0
0.00011738443 1.7646809e-23 0.00035250192 0
0.00012487239 0 0.00035250104 0
4.9333937e-06 5.1472557e-24 0.0003604502 -6.6891975e-10