# interfaceEnergyFluxGas  FACE_DATA 1943
# x  y  z  interfaceEnergyFluxGas
2.508056e-06 0 9.0023965e-05 1.1057622e-08
3.3708309e-07 0 9.2636897e-05 1.2308774e-08
2.5803443e-06 0 9.258902e-05 1.1420285e-08
0.00028313517 0 1.2499944e-06 6.5638894e-10
0.0002831185 -3.5294893e-23 3.7499781e-06 4.9340333e-10
0.00028306506 -3.5296749e-23 6.2499562e-06 -3.3332239e-10
0.00028300014 -3.5297552e-23 8.7499467e-06 5.8872223e-10
0.00028292341 -3.5298156e-23 1.124994e-05 1.2915665e-09
0.000282835 -3.5299079e-23 1.3749929e-05 7.1976044e-10
0.00028272676 0 1.6249912e-05 -5.1520814e-10
0.00028259359 0 1.8749888e-05 7.0338923e-10
0.0002824149 0 2.1249851e-05 9.4624791e-10
0.00028214364 0 2.4282725e-05 1.008931e-11
0.00028227049 6.1649317e-21 2.3035254e-05 2.8527347e-10
0.00028191589 0 2.6249773e-05 -2.8155476e-10
0.00028158546 9.7154181e-22 2.8749747e-05 -3.8308499e-10
0.00028123717 0 3.1249769e-05 1.8986988e-12
0.00028095995 0 3.3749805e-05 8.8522141e-10
0.00028071018 0 3.6249798e-05 1.2622493e-09
0.00028040279 -3.5312969e-23 3.8749765e-05 1.3679096e-09
0.00028005673 0 4.1249723e-05 2.8460662e-10
0.00027958089 0 4.4237797e-05 1.2408899e-09
0.00027980702 3.5304014e-23 4.2996098e-05 1.319065e-09
0.00027917307 0 4.6249624e-05 1.2899368e-09
0.00027865326 -3.5323325e-23 4.8749642e-05 1.1538273e-09
0.00027822504 0 5.1249682e-05 7.6709286e-10
0.00027779246 3.5320566e-23 5.3749675e-05 7.3721431e-10
0.00027716273 0 5.7206306e-05 -1.9290629e-10
0.00027741275 0 5.5974349e-05 1.7257296e-10
0.0002768091 0 5.8749546e-05 -3.5576695e-10
0.00027614369 0 6.1249518e-05 -1.0301936e-10
0.00027552334 3.5332186e-23 6.3749538e-05 9.824727e-10
0.00027467013 0 6.7291462e-05 3.823075e-10
0.00027499308 3.5327435e-23 6.6053305e-05 1.1010679e-09
0.00027424232 -3.5340175e-23 6.8749444e-05 -6.1379287e-11
0.00027346421 0 7.1249446e-05 -3.9910813e-10
0.00027277586 3.5338308e-23 7.3749466e-05 -5.6769939e-10
0.0002719579 0 7.6642419e-05 -3.4152839e-10
0.00027234705 -3.5308529e-23 7.5392411e-05 -5.7751334e-10
0.0002712206 0 7.8749374e-05 -7.981562e-10
0.00027042221 0 8.1249388e-05 -1.3773425e-09
0.00026948661 0 8.4277375e-05 -1.2566274e-09
0.00026990241 0 8.3022925e-05 -1.419148e-09
0.0003413537 0 8.250356e-05 0
0.00034340776 0 8.2512214e-05 0
0.00034590525 0 8.2518548e-05 0
0.00034840274 0 8.2520074e-05 0
0.00035090023 0 8.2518709e-05 0
0.00035339772 0 8.2516946e-05 0
0.00035589521 0 8.2516071e-05 0
0.0003583927 0 8.2516023e-05 0
0.00036089019 0 8.2516219e-05 0
0.00036338768 0 8.2516272e-05 0
0.00036588517 0 8.2516152e-05 0
0.00036838266 0 8.2515984e-05 0
0.00037088015 0 8.2515854e-05 0
0.00037337764 0 8.2515742e-05 0
0.0002687512 3.5350289e-23 8.6249324e-05 -1.6090127e-09
0.00026789611 0 8.8749324e-05 -1.1068811e-09
0.00026690985 0 9.1613889e-05 -7.5469082e-10
0.00026736188 -3.5310115e-23 9.0358774e-05 -8.9784039e-10
0.00026606917 0 9.3749268e-05 -7.356239e-10
0.00026471715 0 9.7453359e-05 -1.167512e-10
0.00026518954 3.5353498e-23 9.6192895e-05 -7.7707409e-10
0.00026417775 0 9.8749219e-05 -9.0633874e-11
0.00037587513 0 8.2515672e-05 0
0.00037837262 0 8.2515588e-05 0
0.00038087011 0 8.2515503e-05 0
0.00038336761 0 8.251542e-05 0
0.0003858651 0 8.2515341e-05 0
0.00038836259 0 8.2515267e-05 0
0.00039086008 0 8.2515194e-05 0
0.00039335757 0 8.2515125e-05 0
0.00039585506 0 8.2515058e-05 0
0.00039835255 0 8.2514994e-05 0
0.00040085005 0 8.2514933e-05 0
0.00040334754 0 8.2514874e-05 0
0.00040584503 0 8.2514819e-05 0
0.00040834252 0 8.2514765e-05 0
0.00041084002 0 8.2514714e-05 0
0.00041333751 0 8.2514665e-05 0
0.000415835 0 8.2514618e-05 0
0.00041833249 0 8.2514573e-05 0
0.00042082999 0 8.2514529e-05 0
0.00042332748 0 8.2514486e-05 0
0.00042582497 0 8.2514444e-05 0
0.00042832246 0 8.2514404e-05 0
0.00043081996 0 8.2514365e-05 0
0.00043331745 0 8.2514328e-05 0
0.00043581494 0 8.2514292e-05 0
0.00043831244 0 8.2514258e-05 0
0.00044080993 0 8.2514225e-05 0
0.00044330742 0 8.2514193e-05 0
0.00044580492 0 8.2514163e-05 0
0.00044830241 0 8.2514134e-05 0
0.0004507999 0 8.2514105e-05 0
0.0004532974 0 8.2514078e-05 0
0.00045579489 0 8.2514051e-05 0
0.00045829238 0 8.2514026e-05 0
0.00046078988 0 8.2514001e-05 0
0.00046328737 0 8.2513977e-05 0
0.00046578487 0 8.2513954e-05 0
0.00046828236 0 8.2513932e-05 0
0.00047077985 0 8.2513911e-05 0
0.00047327735 0 8.2513891e-05 0
0.00047577484 0 8.2513871e-05 0
0.00047827234 0 8.2513851e-05 0
0.00048076983 0 8.2513832e-05 0
0.00048326733 0 8.2513812e-05 0
0.00048576482 0 8.2513791e-05 0
0.00048826231 0 8.2513769e-05 0
0.00049075981 0 8.2513751e-05 0
0.0004932573 0 8.2513735e-05 0
0.0004957548 0 8.2513687e-05 0
0.00049825229 0 8.2513788e-05 0
2.5203775e-06 0 0.00011997788 1.1864602e-08
2.5408748e-06 1.9616198e-23 0.00012009068 1.2427313e-08
5.4946063e-05 0 0.00013000021 -2.3320508e-09
6.4935014e-05 0 0.00013001447 -5.5882885e-09
2.4974957e-05 0 0.00014750345 5.7671179e-09
3.4963362e-05 0 0.00014750013 1.9194063e-09
3.7462511e-05 0 0.00014999451 6.0971204e-10
0.00010989063 0 0.00014750037 -6.5861932e-09
2.4974923e-05 0 0.00015249463 4.2157677e-09
3.2465426e-05 0 0.00015000042 2.4821338e-09
3.496151e-05 0 0.00015000021 1.4253278e-09
3.7460041e-05 0 0.00015000022 1.0380323e-09
2.4975919e-06 0 0.00015743426 6.0596357e-09
9.9898964e-06 0 0.00015747692 6.5880844e-09
4.245782e-05 0 0.00015749868 -9.9341403e-10
7.4925329e-05 0 0.00015500081 -7.9576024e-09
2.4976941e-06 7.0289144e-21 0.00015757012 5.8652657e-09
9.989967e-06 0 0.00015752579 6.3469646e-09
1.9976314e-05 0 0.00015999839 4.3825742e-09
4.2458343e-05 0 0.00015750499 -1.3944996e-09
2.4977099e-06 -9.6433231e-21 0.00016002554 5.0147521e-09
1.9976448e-05 0 0.00016000602 4.6146722e-09
4.2458591e-05 0 0.00016000083 -2.3390294e-09
4.9953035e-05 0 0.00016000003 -4.8808479e-09
5.2451741e-05 0 0.00016000009 -5.2587127e-09
2.4977143e-06 0 0.0001625513 4.44562e-09
2.4976321e-06 0 0.00016745884 3.3195354e-09
2.4976242e-06 0 0.00016994546 2.2714183e-09
1.7489751e-05 0 0.00016999994 2.8207212e-09
0.00010989001 0 0.00016750606 -7.9995021e-09
2.497508e-06 0 0.00017125 1.8342846e-09
2.4975155e-06 -5.7033251e-22 0.00017456838 5.4823399e-10
7.8677857e-05 0 0.0001925 -9.4128985e-09
2.4975315e-06 0 0.00019255979 -4.3817381e-09
4.9950113e-06 0 0.00019251176 -3.7967877e-09
2.4975099e-06 0 0.00019510147 -4.2074584e-09
0.00024963 0 0.00012977846 -6.0050925e-10
0.00024882789 0 0.00013124884 -7.3056958e-10
0.00024698096 0 0.00013452058 -6.6685794e-10
0.00024768515 3.5354653e-23 0.00013326468 -1.9907072e-09
0.00024599932 0 0.00013624877 -1.1812725e-09
0.00024426366 0 0.00013917726 -1.87223e-10
0.00024500696 0 0.00013792307 -1.7083723e-09
0.00023476574 -1.4983975e-17 0.00014000057 2.9840284e-11
0.00024301263 3.5401722e-23 0.00014124872 -3.9880099e-10
0.00024152946 0 0.00014374877 -1.1942949e-10
0.0002422603 0 0.00014250462 -8.2671596e-10
0.00023941126 0 0.00014701263 -2.9336234e-10
0.0002402571 -3.5366012e-23 0.00014574252 4.6453406e-10
0.00023829662 0 0.00014874859 -1.8226646e-09
0.00023655826 0 0.00015143701 -1.4312551e-09
0.0002373825 0 0.00015018333 -3.7922866e-09
0.00023445115 0 0.0001545412 -1.1294297e-09
0.00023530071 0 0.00015328629 -1.3541251e-09
0.00023326016 0 0.00015624845 -1.9172584e-09
0.00023145208 0 0.00015884812 -4.3165914e-10
0.00023233504 3.5303298e-23 0.00015759593 -3.0738603e-09
0.00022929219 0 0.00016184756 1.5378888e-10
0.00023019936 -3.5358826e-23 0.00016059279 0
0.00022710941 0 0.00016478225 4.8992451e-10
0.00022804021 3.5411722e-23 0.00016352981 3.5561911e-10
0.00022599264 0 0.00016624824 5.3381562e-10
0.00022393124 0 0.00016892175 -2.106159e-10
0.0002249081 -3.5313922e-23 0.00016767122 0
0.00022168027 0 0.00017175573 3.2659429e-10
0.00022267932 3.5356688e-23 0.00017050412 7.429178e-11
0.00021941241 0 0.00017455174 -3.2618315e-10
0.0002204289 3.5396834e-23 0.00017329656 6.2101811e-10
0.00021712327 0 0.00017730984 -9.3505814e-11
0.00021816218 0 0.00017605631 -2.8400159e-10
0.0002158963 -3.5467076e-23 0.00017874795 2.8377027e-10
0.00021371918 0 0.00018127424 1.4339897e-10
0.00021480743 -3.5296725e-23 0.00018002591 0
0.00021135736 0 0.00018395428 4.8496251e-10
0.00021246906 -3.5323189e-23 0.0001827056 6.9876013e-10
0.00020897158 0 0.00018660032 -7.3557172e-11
0.00021010683 3.5346232e-23 0.00018535059 5.8414032e-10
0.00020656241 0 0.00018921468 0
0.00020772114 0 0.0001879641 -3.654223e-11
0.00020412852 0 0.000191799 -4.4265173e-10
0.00020531234 0 0.00019054803 -5.3441126e-11
0.00020166758 0 0.00019435273 -5.9128262e-10
0.00020287858 0 0.00019310161 -1.070003e-09
0.00024725182 0 0.00019499921 0
0.00024974609 0 0.00019499974 0
0.00019917797 0 0.00019687574 -6.3413293e-10
0.00020041777 3.5401716e-23 0.00019562472 0
0.00024725238 0 0.00019500159 0
0.00024726107 0 0.00019500804 0
0.00019665887 0 0.00019936906 -6.4048826e-10
0.00019792815 -3.5404483e-23 0.00019811797 -4.9889143e-10
0.00024725212 0 0.00019999892 0
0.00026317316 -3.5361174e-23 0.0001012492 -3.6597815e-10
0.00026193953 0 0.00010428965 -3.2505136e-10
0.00026245995 -3.5322944e-23 0.00010303247 -5.3086776e-10
0.0002610738 3.5365842e-23 0.00010624914 1.4528974e-11
0.00025960029 0 0.00010968478 6.6215996e-10
0.0002601484 0 0.00010842295 4.4557541e-10
0.00025886505 0 0.00011124908 1.3482163e-09
0.00025719834 0 0.00011490561 5.9644988e-10
0.00025777725 9.214346e-21 0.00011364408 1.2648647e-09
0.00025653611 0 0.00011624903 4.7967798e-10
0.00025473802 0 0.00011998578 4.8407622e-10
0.00025534658 0 0.00011872585 6.9024519e-10
0.00025409196 -3.5380447e-23 0.00012124897 4.4169916e-10
0.00025221644 0 0.00012493983 -6.7948778e-10
0.00025285695 3.5378037e-23 0.00012368265 -8.16055e-10
0.00025152488 0 0.0001262489 -1.1527452e-09
0.00025030311 3.5370971e-23 0.00012852254 -1.02754e-09
0.00030969284 -3.5293364e-23 0.00016500676 0
0.00034971289 0 0.00019248732 0
0.00035963913 0 0.00019249908 0
0.00036210242 0 0.00019248869 0
0.00037212503 0 0.00019249666 0
0.00024978012 0 0.00019498314 0
0.00025723235 0 0.0001949942 0
0.00025962346 0 0.00019499914 0
0.0002597465 0 0.00019499648 0
0.00026723197 0 0.00019499977 0
0.00026725497 0 0.00019499289 0
0.00027472463 0 0.00019499985 0
0.00027722217 0 0.00019499954 0
0.00028721165 0 0.00019499886 0
0.00034966001 0 0.00019250131 0
0.00035963737 0 0.00019250278 0
0.00036210299 0 0.00019251114 0
0.00037212578 0 0.00019472523 0
0.00037212856 0 0.00019474902 0
0.0002497631 -3.5294891e-23 0.00019501245 0
0.00025225 3.529339e-23 0.00019500059 0
0.00025722265 0 0.00019500947 0
0.00025742741 0 0.00019500332 0
0.00025976238 0 0.00019500971 0
0.00026473381 0 0.00019500009 0
0.0002672162 0 0.00019500582 0
0.00026729362 0 0.00019501042 0
0.00026973101 0 0.00019500046 0
0.00027721829 0 0.00019504544 0
0.00027723875 0 0.00019745696 0
0.00028720735 0 0.00019747778 0
0.00028722778 0 0.00019746793 0
0.00029470471 0 0.00019749979 0
0.00029717698 0 0.00019749017 0
0.00029721305 0 0.00019748979 0
0.00030469457 0 0.00019749968 0
0.00030715503 0 0.00019749443 0
0.00031468471 0 0.00019749971 0
0.00031469204 0 0.00019749554 0
0.0003721202 0 0.00019500756 0
0.00037213048 -7.0586645e-23 0.00019500288 0
0.00027722814 0 0.00019750738 0
0.00028720556 0 0.00019750647 0
0.00028721807 -7.8187874e-18 0.00019750536 0
0.00029717674 0 0.00019750969 0
0.00029721036 3.5293973e-23 0.00019750796 0
0.00030715769 0 0.0001975073 0
0.00031468133 0 0.00019751155 0
0.00031470067 0 0.0001975222 0
0.00032467491 0 0.00019751575 0
0.00032467603 3.5293151e-23 0.00019778328 0
0.00033466293 0 0.00019750035 0
0.0003371341 0 0.00019750133 0
0.00033958775 0 0.00019750184 0
0.00034965108 0 0.00019999934 0
0.00049699724 0 0.00016749552 0
0.00049947877 0 0.00016748052 0
0.00048700664 0 0.0001699952 0
0.00048701583 0 0.00016999676 0
0.00049699927 0 0.00016755324 0
0.00049948919 0 0.00016758383 0
0.00048699304 0 0.00017005554 0
0.00048701496 0 0.00017003393 0
0.00049699649 0 0.00017000516 0
0.00049948629 0 0.00017000948 0
0.00047700041 0 0.00017496452 0
0.00047703372 0 0.00017497602 0
0.00046203299 0 0.00017504964 0
0.00046204232 0 0.00017726462 0
0.00047701144 0 0.0001750105 0
0.00047703191 7.0587472e-23 0.00017500928 0
0.00044455411 0 0.0001799991 0
0.00044457558 0 0.00017998897 0
0.0004620414 0 0.00017750456 0
0.00044454364 0 0.00018001842 0
0.00044458802 7.0591321e-23 0.00018003024 0
0.00045455207 0 0.00018249115 0
0.00045453604 0 0.00018253582 0
0.00045456353 0 0.00018256423 0
0.00042708363 0 0.00018749992 0
0.00045454213 0 0.00018500281 0
0.00045454905 0 0.00018500394 0
0.00040459523 0 0.00018999956 0
0.00041708203 0 0.0001899995 0
0.00042710319 0 0.00018750359 0
0.00043704743 -2.8343871e-18 0.0001899848 0
0.00043707852 0 0.00018998411 0
0.00038461253 0 0.00019249767 0
0.00038461879 0 0.00019249639 0
0.00039458128 0 0.00019249312 0
0.00039461067 0 0.00019249445 0
0.00040458547 0 0.00019245137 0
0.00040459645 0 0.00019249139 0
0.00041707136 0 0.00019248756 0
0.00041709143 0 0.00019249384 0
0.00043704065 0 0.0001900264 0
0.00043708234 0 0.00019002368 0
0.00038459634 0 0.00019496395 0
0.00038461873 0 0.00019497238 0
0.00039457716 0 0.00019251038 0
0.00039461051 0 0.00019250525 0
0.00041707734 0 0.00019499113 0
0.0004245747 0 0.00019499983 0
0.00042703984 0 0.00019498921 0
0.00042708243 0 0.00019499028 0
0.00042703242 0 0.00019502412 0
0.00042708515 7.0588169e-23 0.00019501342 0
0.00049200378 0 0.00019749619 0
0.00049445609 0 0.00019749402 0
0.00041720962 0 0.0001999921 0
0.00044953787 0 0.00019998352 0
0.00044957473 0 0.00019998214 0
0.00045953643 0 0.0001999967 0
0.00045954396 0 0.00019999624 0
0.00049200539 0 0.00019750193 0
0.00049447732 0 0.00019750673 0
0.00012369647 -1.7815191e-23 0.00025190557 -7.4440122e-10
0.00011863563 0 0.00025438037 -1.52227e-09
0.00012113304 0 0.00025318214 -1.3031671e-09
0.00012244486 0 0.00025253365 -1.6508628e-09
0.00011216518 0 0.00025740141 -1.2056998e-09
0.00011364082 0 0.00025670616 -1.3692462e-09
0.00011613095 -1.7835181e-23 0.00025557669 -1.6472888e-09
0.00010677941 0 0.00025974094 -8.5835523e-10
0.00010864603 0 0.00025890861 -9.3866703e-10
0.00011090673 0 0.00025794569 -1.5121284e-09
0.00010120272 0 0.00026201657 -5.013423e-10
0.00010365127 0 0.00026100935 -1.4441428e-09
0.00010552119 0 0.00026026109 -1.1324899e-09
9.4207036e-05 0 0.00026474083 1.9748165e-10
9.6159156e-05 0 0.00026395556 4.5059921e-11
9.8656519e-05 0 0.00026302639 -4.8516832e-10
9.9949926e-05 -1.7655333e-23 0.00026251996 -8.2203484e-10
8.6896799e-05 0 0.00026732732 -9.7503539e-11
8.8667113e-05 0 0.00026667854 3.3449077e-10
9.1164452e-05 0 0.00026579445 2.094389e-09
9.2950596e-05 1.7749427e-23 0.00026519687 3.147582e-09
7.9265971e-05 0 0.0002697996 2.5264135e-10
8.1175154e-05 0 0.00026915502 2.0149978e-12
8.3672463e-05 0 0.00026832488 -1.8745477e-10
8.5644546e-05 -8.8982086e-24 0.00026773724 -8.8921144e-10
7.130846e-05 0 0.00027216807 4.7306498e-11
7.3683305e-05 0 0.00027140104 6.3937555e-10
7.6180574e-05 0 0.00027065257 1.8402445e-09
7.8016006e-05 -8.8902147e-24 0.00027017467 1.381505e-09
6.1453171e-05 0 0.00027474321 -5.1920948e-10
6.3694412e-05 0 0.00027409937 -2.2364061e-10
6.6191604e-05 0 0.0002734335 -3.3292942e-11
6.8688818e-05 0 0.00027284529 -6.3773477e-10
7.005063e-05 0 0.00027253393 -7.6815822e-10
4.909741e-05 0 0.00027734082 -7.2168889e-10
5.1208902e-05 0 0.00027690553 -5.6648439e-10
5.370593e-05 0 0.0002763491 -1.8092108e-10
5.6203e-05 0 0.00027584763 -4.3211857e-11
5.8700106e-05 0 0.0002753593 -6.8877715e-10
6.0200853e-05 0 0.00027506419 -1.312433e-09
3.4062621e-05 0 0.00027986165 6.5266233e-11
3.6228103e-05 0 0.00027949554 2.5101501e-11
3.8724677e-05 0 0.00027898549 0
4.1221364e-05 0 0.00027856329 5.4882902e-11
4.3718143e-05 0 0.00027817519 4.5624411e-10
4.6215e-05 0 0.00027780288 -5.7058285e-10
4.7851546e-05 -2.8819926e-21 0.00027756995 -1.0380944e-09
1.665e-06 0 0.00028202364 9.8242107e-10
3.885e-06 0 0.00028211049 4.9287115e-10
6.327e-06 0 0.00028201263 3.5430293e-10
8.8007143e-06 0 0.00028190697 -2.020317e-10
1.1285e-05 0 0.00028179013 -4.5660099e-10
1.3774091e-05 0 0.00028166841 -9.5899212e-10
1.6265769e-05 0 0.00028150156 -1.592236e-09
1.8759e-05 0 0.00028133165 -2.4243366e-09
2.1253235e-05 0 0.00028115889 -2.4735809e-09
2.3748158e-05 0 0.00028098294 -2.3884074e-09
2.6243571e-05 0 0.00028076007 -1.6085068e-09
2.8739348e-05 0 0.00028048991 -8.9174501e-10
3.12354e-05 0 0.00028021996 -9.564002e-11
3.2813588e-05 0 0.00028004888 5.3453099e-10
1.4985088e-05 0 0.00029001193 0
4.9950616e-05 0 0.00029750161 0
0.00019410911 0 0.00020183348 1.2494771e-10
0.00019540889 3.5401997e-23 0.00020058269 0
0.0001915286 0 0.00020427041 -4.2167275e-10
0.00019285887 0 0.00020302 4.714778e-10
0.00018891763 0 0.00020668193 -1.1351153e-09
0.00019027795 0 0.00020543184 -1.8469367e-09
0.0001862748 0 0.00020906911 -3.6089175e-10
0.00018766689 -3.5359645e-23 0.0002078201 -6.7589921e-10
0.0001835993 0 0.00021143208 -6.1824189e-10
0.00018502385 0 0.00021018458 0
0.00017963605 0 0.00021484522 -2.3115549e-10
0.00018107162 0 0.00021361646 -3.7576038e-10
0.00018234777 0 0.00021252627 -7.8933387e-10
0.00017688426 0 0.00021713836 -6.2411568e-10
0.00017838728 0 0.00021588413 -1.0551505e-10
0.00017409422 0 0.00021940903 -5.2056817e-10
0.00017563164 3.5454888e-23 0.00021815604 -7.3633726e-10
0.00017126777 0 0.0002216618 2.6472151e-10
0.00017284267 0 0.00022041074 5.6675567e-10
0.00016713551 0 0.00022485129 -4.1971674e-10
0.00016858433 0 0.00022374178 -8.2335188e-11
0.00017001499 0 0.00022264434 7.2819773e-10
0.00016421439 0 0.00022704023 -7.4331272e-10
0.00016588757 -1.7758254e-23 0.00022578496 -7.4093409e-10
0.00016123306 0 0.00022920576 -1.1055609e-09
0.00016296052 -1.77139e-23 0.00022795335 -1.6930713e-09
0.00015693877 0 0.00023222114 -3.5349982e-11
0.00015859453 0 0.00023105817 -1.7991674e-10
0.00015997834 0 0.00023009819 -1.5183461e-09
0.00015385414 0 0.0002343312 -5.7591461e-10
0.00015568646 0 0.0002330746 0
0.00014941939 0 0.00023722401 -3.6004817e-10
0.00015110219 0 0.0002361339 -1.0925346e-09
0.00015259845 -1.7675524e-23 0.00023516652 -1.3897974e-09
0.00014619986 0 0.00023927593 -2.50744e-10
0.00014816736 1.7743392e-23 0.00023801745 -1.3334797e-09
0.00014161035 0 0.00024205354 5.0370473e-10
0.00014360987 0 0.00024084473 8.8027451e-10
0.00014494306 0 0.00024005436 7.5853824e-10
0.00013695659 0 0.00024476892 4.9496546e-10
0.000138615 0 0.00024382668 2.5039521e-10
0.00014035654 1.7708875e-23 0.00024279426 1.4434809e-10
0.0001322299 0 0.00024742503 5.7270296e-10
0.00013362014 0 0.00024665955 7.7379891e-10
0.00013570312 0 0.0002454734 1.2489047e-09
0.00012865966 0 0.00024935115 4.1101889e-10
0.00013098067 0 0.00024809787 3.1306296e-10
0.00012612787 0 0.00025067294 -1.0322031e-09
0.00012740679 1.7651269e-23 0.00025001811 -1.5763546e-09
0.00024226351 3.5293916e-23 0.00029000601 0
0.00018481474 0 0.00029250095 0
0.00026473444 0 0.00020249953 0
0.00026972575 0 0.00020249759 0
0.0003496417 0 0.00020000734 0
0.00026471784 0 0.00020497504 0
0.00026721266 0 0.00020498759 0
0.00026472463 0 0.00020747965 0
0.00028221811 0 0.00021054034 0
0.00028221771 -3.5293066e-23 0.00021516503 0
0.00028221765 3.5293058e-23 0.00021830079 0
0.0002822178 0 0.00022125 0
0.00028221759 0 0.0002249072 0
0.00033216388 0 0.00022499624 0
0.00033218679 0 0.00022498926 0
0.00034215709 0 0.0002249996 0
0.00034215932 0 0.00022499783 0
0.00034963749 -8.8929616e-22 0.0002225142 0
0.00035212637 0 0.00022251127 0
0.00028221763 0 0.00022702405 0
0.00033215774 0 0.00022501022 0
0.00033218755 0 0.00022501281 0
0.00034214959 0 0.00022747513 0
0.00034216614 0 0.00022747402 0
0.00028221764 0 0.00022853442 0
0.000297221 0 0.00022750682 0
0.00032467475 0 0.00022999514 0
0.00032468565 0 0.00022991061 0
0.0003696297 0 0.00022999968 0
0.00037209552 0 0.00022998863 0
0.00028221876 0 0.00023046406 0
0.00036962823 0 0.00023000188 0
0.0003720955 0 0.00023001136 0
0.00028221878 0 0.00023258083 0
0.00033466458 0 0.00023499964 0
0.00033715643 0 0.00023499638 0
0.000337166 0 0.00023499627 0
0.00033714526 0 0.00023502151 0
0.00033716589 0 0.00023500954 0
0.00027973051 0 0.00023750665 0
0.00032720172 -3.9530887e-19 0.00024251231 0
0.00033466527 0 0.00024250064 0
0.00033216917 3.5293217e-23 0.00025000013 0
0.00036962813 0 0.00025229035 0
0.0003696301 0 0.00025247189 0
0.0002922671 3.5300236e-23 0.00025502388 0
0.00033215492 0 0.00025750317 0
0.00033464986 -4.2712913e-18 0.00025750215 0
0.00034216115 0 0.00026000888 0
0.00032225919 0 0.0002649713 0
0.00037212214 0 0.00026252829 0
0.00037212856 0 0.00026250477 0
0.00036463011 0 0.0002723725 0
0.00036463546 0 0.00027125 0
0.00033717991 0 0.00027500159 0
0.00035963829 0 0.00027749804 0
0.00035963196 0 0.00027758487 0
0.00035964475 7.0587011e-23 0.00027761785 0
0.00029471724 0 0.0002800045 0
0.00035963378 0 0.00028000623 0
0.00035964482 -7.0587024e-23 0.00028000465 0
0.00036213814 0 0.00029000015 0
0.00029970546 -3.5293682e-23 0.00029250546 0
0.00032966722 0 0.00029500034 0
0.00033210508 0 0.0002950024 0
0.00033412462 0 0.00029500011 0
0.00034465791 3.5293337e-23 0.0002975193 0
0.00041726877 0 0.00020000269 0
0.00044203165 0 0.00020248006 0
0.00044206699 0 0.00020248472 0
0.0004495437 0 0.00020000917 0
0.00044957035 0 0.00020001147 0
0.00045204788 -7.0586138e-23 0.00020000041 0
0.00045953209 0 0.00020008133 0
0.00045954411 0 0.00020246453 0
0.00044203761 0 0.00020251343 0
0.0004420669 0 0.0002025104 0
0.00047700298 0 0.00020496612 0
0.00048700126 0 0.00020499253 0
0.00048701767 0 0.00020499564 0
0.00041458365 0 0.0002074987 0
0.00041459335 0 0.00020749201 0
0.0004320618 0 0.00020749419 0
0.00043213637 0 0.00020749417 0
0.00048699571 0 0.00020502685 0
0.0004870208 7.0587282e-23 0.00020501889 0
0.00038210063 0 0.00020998298 0
0.00038213551 0 0.0002099826 0
0.00041458411 0 0.00020784381 0
0.00041459548 0 0.00020756986 0
0.00043206045 0 0.0002075064 0
0.00043216831 -7.0602543e-23 0.00020750511 0
0.00047202724 0 0.00020999977 0
0.00049450568 0 0.00020750014 0
0.00038209798 0 0.00021002103 0
0.00038213798 0 0.00021002109 0
0.00039709316 0 0.00021249493 0
0.00039710731 0 0.00021249527 0
0.00047200397 0 0.00021247101 0
0.00047203189 0 0.00021248247 0
0.00047702953 0 0.0002124996 0
0.00039707459 0 0.00021253383 0
0.00039710714 7.0586904e-23 0.00021251264 0
0.00040708769 0 0.00021474467 0
0.00040709275 0 0.00021498614 0
0.00042457436 0 0.0002149995 0
0.00042482637 0 0.00021499742 0
0.00042708135 0 0.00021499273 0
0.00047200757 -6.1372896e-19 0.00021250567 0
0.00047203094 -7.0586594e-23 0.00021250178 0
0.00047951569 0 0.00021499757 0
0.00042698637 0 0.00021500175 0
0.00042707709 0 0.00021500461 0
0.00044455472 0 0.00021749977 0
0.00044704831 0 0.00021749841 0
0.00044954535 0 0.00021749763 0
0.00047951572 0 0.00021749813 0
0.00044455412 0 0.00021750165 0
0.00044704794 0 0.00021750284 0
0.00047947154 0 0.00021751637 0
0.00044455374 0 0.0002224989 0
0.00040957245 0 0.0002250098 0
0.00041206928 0 0.00022501167 0
0.00041957273 0 0.00022749267 0
0.00041959455 0 0.0002274895 0
0.00042956803 0 0.00022749815 0
0.00042957319 0 0.00022749694 0
0.00043956044 0 0.00022500028 0
0.00041957355 0 0.00022750645 0
0.00041959384 0 0.00022750965 0
0.00042956374 0 0.00022756167 0
0.00042957183 0 0.00022997184 0
0.00046953017 0 0.00022751327 0
0.00048703293 0 0.00022999815 0
0.00046953115 0 0.0002300023 0
0.00048700972 0 0.0002300026 0
0.00048706847 0 0.00023001204 0
0.00037962008 0 0.00023499847 0
0.00046953169 -7.0586333e-23 0.00023250099 0
0.00047702613 0 0.00023499563 0
0.0003796205 0 0.00023502906 0
0.00045942316 0 0.00023500031 0
0.00046199825 0 0.00023500103 0
0.00046204724 0 0.00023500079 0
0.00046453656 0 0.00023500092 0
0.00047701505 0 0.00023501393 0
0.00047704555 -7.0589489e-23 0.00023502468 0
0.00037962126 7.0586313e-23 0.00023750837 0
0.00043706404 0 0.00023999984 0
0.00048695146 0 0.00023750021 0
0.00048946121 0 0.00023750103 0
0.0004895779 0 0.00023750139 0
0.00049202409 7.0588458e-23 0.00023750265 0
0.00043708 0 0.00024000208 0
0.00047202237 0 0.00024249429 0
0.00047203893 0 0.00024249106 0
0.00038211519 0 0.00024250237 0
0.00038460797 0 0.00024251387 0
0.00043206635 0 0.00024499951 0
0.00044955569 0 0.0002425036 0
0.00045703432 0 0.00024250918 0
0.00045706257 7.0589178e-23 0.00024252869 0
0.00047201922 0 0.00024251325 0
0.00047203883 0 0.00024251442 0
0.00049201251 0 0.00024499505 -8.0144651e-10
0.00040460363 0 0.00024501678 0
0.00042707226 0 0.00024749973 0
0.00042956811 0 0.00024749797 0
0.00043957686 0 0.00024747974 0
0.00046451382 0 0.00024747789 -2.3712947e-09
0.00046461281 0 0.00024743554 0
0.00047695106 0 0.00024744217 0
0.00047706659 0 0.00024745392 0
0.00049200016 0 0.00024519382 0
0.00049204274 0 0.00024718803 -6.3839529e-10
0.00040459565 0 0.00024750334 0
0.00042707207 0 0.00024750204 0
0.00042956512 0 0.00024751103 0
0.00043956637 0 0.00024996892 0
0.0004470686 0 0.00024998129 0
0.00045452138 0 0.00024997134 -7.9125298e-10
0.00045497298 0 0.00024998919 -8.4924848e-10
0.00046449005 0 0.00024755212 -7.7614813e-10
0.00046461403 0 0.00024762899 0
0.0004769649 0 0.00024755094 0
0.00047707061 0 0.00024754764 7.7494202e-10
0.00049200615 0 0.00024750134 0
0.00049203259 7.0589678e-23 0.00024751839 -8.0040531e-10
0.0003995908 0 0.00025249564 0
0.00040208957 0 0.00025249734 0
0.00040459617 0 0.00025249699 0
0.00042957227 7.0586452e-23 0.00025000198 0
0.00043704331 0 0.00025247313 0
0.00043945313 0 0.00025244637 0
0.00043958147 0 0.00025243257 0
0.0004470367 0 0.00025006226 0
0.00044711316 7.0595655e-23 0.00025016765 0
0.00045450768 0 0.00025003495 -1.563555e-09
0.00045466235 0 0.00025005575 -1.3458274e-10
0.00039958553 0 0.00025250964 0
0.00040459571 0 0.00025499552 0
0.00043700983 0 0.00025255242 0
0.00043728295 -7.0621658e-23 0.00025252864 0
0.00043956234 -7.0586455e-23 0.00025250209 0
0.00044704783 0 0.00025250441 0
0.00044706144 -7.058749e-23 0.00025250926 0
0.00040459518 0 0.00025501943 0
0.00041708252 0 0.00025747412 0
0.00042957214 0 0.00025749874 0
0.00039210762 -7.05861e-23 0.00025750091 0
0.00041708283 0 0.0002575202 0
0.00042957277 0 0.00025999462 0
0.00041708263 -7.0586102e-23 0.00026000321 0
0.00042957111 -7.0586261e-23 0.00026000569 0
0.00037713312 7.0588067e-23 0.00026250738 0
0.00038461471 0 0.00026499978 0
0.00038710208 0 0.00026499787 0
0.00039461249 0 0.00026499807 0
0.00038709256 0 0.00026501281 0
0.00039460289 0 0.00026500201 0
0.0003946412 -7.0592554e-23 0.00026501311 0
0.00040958974 0 0.00026749974 0
0.00040959831 0 0.00026749744 0
0.00038709967 0 0.00026750164 0
0.00040958685 0 0.00026750495 0
0.00040960615 0 0.00026751114 0
0.00042207141 0 0.00026998883 0
0.00042207971 0 0.00026999461 0
0.00043188742 0 0.00026750032 0
0.00043250617 0 0.00026750003 0
0.00043688991 0 0.00026750003 0
0.00048701215 0 0.00026999982 0
0.00049700019 0 0.00026999775 0
0.00049949196 0 0.00026999146 0
0.00042207668 0 0.00027000502 0
0.00047209708 0 0.00027249775 0
0.00048451485 0 0.00027249956 0
0.00048699352 0 0.00027245797 0
0.00048701555 0 0.00027242632 0
0.00049699925 0 0.00027000395 0
0.00049949135 0 0.00027001333 0
0.00042207678 0 0.00027250025 0
0.00043930671 0 0.00027499965 0
0.00044705222 0 0.00027499976 0
0.00044954881 0 0.00027499918 0
0.00044955171 0 0.00027499866 0
0.00046453176 0 0.00027499804 0
0.00046453783 0 0.00027499785 0
0.00047202329 0 0.00027250497 0
0.00047211356 0 0.00027251121 0
0.00048699041 0 0.00027250359 0
0.00048701989 7.058715e-23 0.00027250723 0
0.00043929791 0 0.00027500015 0
0.0004495442 0 0.00027500955 0
0.0004495511 0 0.0002774957 0
0.00045462916 0 0.00027748963 0
0.00046203686 0 0.00027749928 0
0.00046450599 0 0.0002774629 0
0.00041958396 0 0.00027999958 0
0.00045459711 0 0.00027750469 0
0.00046452948 0 0.00027750313 0
0.00048700639 0 0.00027999494 0
0.00048701717 0 0.00027999547 0
0.00049949839 0 0.00027999417 0
0.00047701891 0 0.00028249627 0
0.00047943635 0 0.00028249442 0
0.00048698999 0 0.0002800587 0
0.00048701547 0 0.00028003216 0
0.00049949912 0 0.00028000604 0
0.00047701545 0 0.00028250715 0
0.00047934265 0 0.00028250377 0
0.00049949936 0 0.00028250135 0
0.00043706214 0 0.00028749965 0
0.00043706393 0 0.00028749865 0
0.00043705619 0 0.0002899792 0
0.00043706776 0 0.00028998433 0
0.0003946047 0 0.00029249969 0
0.00039460789 0 0.00029249747 0
0.00049699427 0 0.0002924964 0
0.00049948589 0 0.00029249929 0
0.00037462504 0 0.00029250156 0
0.00038211759 0 0.00029250605 0
0.000394604 0 0.00029251108 0
0.00039460782 7.0586584e-23 0.00029251006 0
0.0004969826 0 0.00029251715 0
0.00049949424 0 0.00029250428 0
0.00037462589 -7.0586247e-23 0.0002950301 0
0.00039460555 0 0.00029500076 0
0.00042707214 0 0.00029749971 0
0.00042954916 0 0.00029749717 0
0.00045454778 -7.058651e-23 0.00029500072 0
0.00048701206 0 0.00029749955 0
0.00048702597 0 0.00029749457 0
0.00042955934 0 0.00029750213 0
0.00043955967 0 0.00029999968 0
0.00043956136 0 0.00029999871 0
0.00048700629 0 0.00029750774 0
0.00048703203 0 0.00029751294 0
0.00011738129 0 0.0003200008 0
3.7462758e-05 -4.4116604e-24 0.00032250187 0
1.7498561e-05 -2.207839e-24 0.00033250001 0
3.2470806e-05 4.4120791e-24 0.00033500036 0
4.7450518e-05 0 0.00033750119 0
8.9913859e-05 1.1404881e-18 0.00034500033 0
9.2410294e-05 1.7647053e-23 0.00034500047 0
1.4987149e-05 2.4201294e-21 0.00035500882 0
2.6243571e-05 0 0.00035750003 0
2.8739348e-05 0 0.00035750004 0
3.12354e-05 0 0.00035750004 0
3.3731667e-05 0 0.00035750003 0
3.6228103e-05 0 0.00035750003 0
3.8724677e-05 0 0.00035750003 0
4.1221364e-05 0 0.00035750001 0
4.3718143e-05 0 0.00035750002 0
4.6133039e-05 -9.0467294e-24 0.0003575 0
4.8711923e-05 0 0.0003575 0
5.4946406e-05 0 0.00036500308 0
2.7476887e-05 0 0.00037000137 0
3.9961065e-05 -4.4117475e-24 0.00037000168 0
0.00011238762 -1.7646539e-23 0.00037256156 0
5.4941605e-05 0 0.00038499991 0
5.7442674e-05 -8.8232866e-24 0.00038750195 0
5.7442773e-05 -8.8233018e-24 0.00039000128 0
4.2457558e-05 0 0.00039501018 0
2.9971157e-05 0 0.00039750408 0
5.9944533e-05 -8.8239271e-24 0.00039750002 0
6.7431564e-05 0 0.00039750018 0
0.00010239774 0 0.00039764031 0
0.00017232672 0 0.00030000058 0
0.00015734328 0 0.00034750038 0
0.00024725252 0 0.00035499497 0
0.00020978971 0 0.00036000104 0
0.00014984981 0 0.0003650007 0
0.00015734355 1.7646637e-23 0.00036750258 0
0.00019981003 0 0.00037514052 0
0.00023976048 0 0.00037769341 0
0.00012986872 0 0.00038000007 0