# interfaceEnergyFluxLiquid  FACE_DATA 1943
# x  y  z  interfaceEnergyFluxLiquid
2.508056e-06 0 9.0023965e-05 0
3.3708309e-07 0 9.2636897e-05 0
2.5803443e-06 0 9.258902e-05 0
0.00028313517 0 1.2499944e-06 89732.31
0.0002831185 -3.5294893e-23 3.7499781e-06 89468.548
0.00028306506 -3.5296749e-23 6.2499562e-06 88589.152
0.00028300014 -3.5297552e-23 8.7499467e-06 87677.246
0.00028292341 -3.5298156e-23 1.124994e-05 86935.726
0.000282835 -3.5299079e-23 1.3749929e-05 86825.851
0.00028272676 0 1.6249912e-05 86537.171
0.00028259359 0 1.8749888e-05 86725.379
0.0002824149 0 2.1249851e-05 86348.826
0.00028214364 0 2.4282725e-05 123354.81
0.00028227049 6.1649317e-21 2.3035254e-05 86398.956
0.00028191589 0 2.6249773e-05 111638.28
0.00028158546 9.7154181e-22 2.8749747e-05 100549.65
0.00028123717 0 3.1249769e-05 92466.515
0.00028095995 0 3.3749805e-05 89385.524
0.00028071018 0 3.6249798e-05 88259.195
0.00028040279 -3.5312969e-23 3.8749765e-05 87142.237
0.00028005673 0 4.1249723e-05 86043.641
0.00027958089 0 4.4237797e-05 120724.21
0.00027980702 3.5304014e-23 4.2996098e-05 85697.387
0.00027917307 0 4.6249624e-05 102716.49
0.00027865326 -3.5323325e-23 4.8749642e-05 91276.789
0.00027822504 0 5.1249682e-05 88016.302
0.00027779246 3.5320566e-23 5.3749675e-05 86629.292
0.00027716273 0 5.7206306e-05 124594.65
0.00027741275 0 5.5974349e-05 85866.906
0.0002768091 0 5.8749546e-05 108710.61
0.00027614369 0 6.1249518e-05 92393.685
0.00027552334 3.5332186e-23 6.3749538e-05 87339.132
0.00027467013 0 6.7291462e-05 120472.4
0.00027499308 3.5327435e-23 6.6053305e-05 85655.111
0.00027424232 -3.5340175e-23 6.8749444e-05 104559.18
0.00027346421 0 7.1249446e-05 89523.518
0.00027277586 3.5338308e-23 7.3749466e-05 86071.047
0.0002719579 0 7.6642419e-05 113271.02
0.00027234705 -3.5308529e-23 7.5392411e-05 84262.378
0.0002712206 0 7.8749374e-05 92005.223
0.00027042221 0 8.1249388e-05 86190.293
0.00026948661 0 8.4277375e-05 113544.76
0.00026990241 0 8.3022925e-05 83470.086
0.0003413537 0 8.250356e-05 137857.45
0.00034340776 0 8.2512214e-05 123147.92
0.00034590525 0 8.2518548e-05 115015.82
0.00034840274 0 8.2520074e-05 111032.61
0.00035090023 0 8.2518709e-05 108827.84
0.00035339772 0 8.2516946e-05 107397.34
0.00035589521 0 8.2516071e-05 106327.7
0.0003583927 0 8.2516023e-05 105432.68
0.00036089019 0 8.2516219e-05 104624.66
0.00036338768 0 8.2516272e-05 103864.81
0.00036588517 0 8.2516152e-05 103138.48
0.00036838266 0 8.2515984e-05 102440.86
0.00037088015 0 8.2515854e-05 101769.93
0.00037337764 0 8.2515742e-05 101123.88
0.0002687512 3.5350289e-23 8.6249324e-05 92359.571
0.00026789611 0 8.8749324e-05 86461.061
0.00026690985 0 9.1613889e-05 110349.51
0.00026736188 -3.5310115e-23 9.0358774e-05 83262.703
0.00026606917 0 9.3749268e-05 90661.156
0.00026471715 0 9.7453359e-05 114866.45
0.00026518954 3.5353498e-23 9.6192895e-05 85864.052
0.00026417775 0 9.8749219e-05 100187.63
0.00037587513 0 8.2515672e-05 100501.99
0.00037837262 0 8.2515588e-05 99903.201
0.00038087011 0 8.2515503e-05 99327.198
0.00038336761 0 8.251542e-05 98773.591
0.0003858651 0 8.2515341e-05 98241.927
0.00038836259 0 8.2515267e-05 97731.663
0.00039086008 0 8.2515194e-05 97242.208
0.00039335757 0 8.2515125e-05 96772.957
0.00039585506 0 8.2515058e-05 96323.295
0.00039835255 0 8.2514994e-05 95892.602
0.00040085005 0 8.2514933e-05 95480.264
0.00040334754 0 8.2514874e-05 95085.675
0.00040584503 0 8.2514819e-05 94708.255
0.00040834252 0 8.2514765e-05 94347.456
0.00041084002 0 8.2514714e-05 94002.763
0.00041333751 0 8.2514665e-05 93673.691
0.000415835 0 8.2514618e-05 93359.767
0.00041833249 0 8.2514573e-05 93060.518
0.00042082999 0 8.2514529e-05 92775.454
0.00042332748 0 8.2514486e-05 92504.071
0.00042582497 0 8.2514444e-05 92245.846
0.00042832246 0 8.2514404e-05 92000.251
0.00043081996 0 8.2514365e-05 91766.76
0.00043331745 0 8.2514328e-05 91544.867
0.00043581494 0 8.2514292e-05 91334.09
0.00043831244 0 8.2514258e-05 91133.98
0.00044080993 0 8.2514225e-05 90944.118
0.00044330742 0 8.2514193e-05 90764.108
0.00044580492 0 8.2514163e-05 90593.565
0.00044830241 0 8.2514134e-05 90432.114
0.0004507999 0 8.2514105e-05 90279.392
0.0004532974 0 8.2514078e-05 90135.051
0.00045579489 0 8.2514051e-05 89998.771
0.00045829238 0 8.2514026e-05 89870.264
0.00046078988 0 8.2514001e-05 89749.273
0.00046328737 0 8.2513977e-05 89635.571
0.00046578487 0 8.2513954e-05 89528.956
0.00046828236 0 8.2513932e-05 89429.253
0.00047077985 0 8.2513911e-05 89336.321
0.00047327735 0 8.2513891e-05 89250.066
0.00047577484 0 8.2513871e-05 89170.428
0.00047827234 0 8.2513851e-05 89097.354
0.00048076983 0 8.2513832e-05 89030.75
0.00048326733 0 8.2513812e-05 88970.433
0.00048576482 0 8.2513791e-05 88916.124
0.00048826231 0 8.2513769e-05 88867.609
0.00049075981 0 8.2513751e-05 88829.648
0.0004932573 0 8.2513735e-05 88974.973
0.0004957548 0 8.2513687e-05 88779.494
0.00049825229 0 8.2513788e-05 104384.18
2.5203775e-06 0 0.00011997788 0
2.5408748e-06 1.9616198e-23 0.00012009068 0
5.4946063e-05 0 0.00013000021 0
6.4935014e-05 0 0.00013001447 0
2.4974957e-05 0 0.00014750345 0
3.4963362e-05 0 0.00014750013 0
3.7462511e-05 0 0.00014999451 0
0.00010989063 0 0.00014750037 0
2.4974923e-05 0 0.00015249463 0
3.2465426e-05 0 0.00015000042 0
3.496151e-05 0 0.00015000021 0
3.7460041e-05 0 0.00015000022 0
2.4975919e-06 0 0.00015743426 0
9.9898964e-06 0 0.00015747692 0
4.245782e-05 0 0.00015749868 0
7.4925329e-05 0 0.00015500081 0
2.4976941e-06 7.0289144e-21 0.00015757012 0
9.989967e-06 0 0.00015752579 0
1.9976314e-05 0 0.00015999839 0
4.2458343e-05 0 0.00015750499 0
2.4977099e-06 -9.6433231e-21 0.00016002554 0
1.9976448e-05 0 0.00016000602 0
4.2458591e-05 0 0.00016000083 0
4.9953035e-05 0 0.00016000003 0
5.2451741e-05 0 0.00016000009 0
2.4977143e-06 0 0.0001625513 0
2.4976321e-06 0 0.00016745884 0
2.4976242e-06 0 0.00016994546 0
1.7489751e-05 0 0.00016999994 0
0.00010989001 0 0.00016750606 0
2.497508e-06 0 0.00017125 0
2.4975155e-06 -5.7033251e-22 0.00017456838 0
7.8677857e-05 0 0.0001925 0
2.4975315e-06 0 0.00019255979 0
4.9950113e-06 0 0.00019251176 0
2.4975099e-06 0 0.00019510147 0
0.00024963 0 0.00012977846 109641.85
0.00024882789 0 0.00013124884 95380.439
0.00024698096 0 0.00013452058 107120.71
0.00024768515 3.5354653e-23 0.00013326468 84735.305
0.00024599932 0 0.00013624877 92136.726
0.00024426366 0 0.00013917726 103672.3
0.00024500696 0 0.00013792307 82900.625
0.00023476574 -1.4983975e-17 0.00014000057 0
0.00024301263 3.5401722e-23 0.00014124872 88767.854
0.00024152946 0 0.00014374877 100405.55
0.0002422603 0 0.00014250462 81022.459
0.00023941126 0 0.00014701263 101124.85
0.0002402571 -3.5366012e-23 0.00014574252 85247.941
0.00023829662 0 0.00014874859 90557.968
0.00023655826 0 0.00015143701 100435.33
0.0002373825 0 0.00015018333 81813.564
0.00023445115 0 0.0001545412 103916.14
0.00023530071 0 0.00015328629 85445.134
0.00023326016 0 0.00015624845 90417.631
0.00023145208 0 0.00015884812 98421.601
0.00023233504 3.5303298e-23 0.00015759593 81430.953
0.00022929219 0 0.00016184756 101299.03
0.00023019936 -3.5358826e-23 0.00016059279 84186.902
0.00022710941 0 0.00016478225 106591.17
0.00022804021 3.5411722e-23 0.00016352981 88030.449
0.00022599264 0 0.00016624824 92684.962
0.00022393124 0 0.00016892175 98273.442
0.0002249081 -3.5313922e-23 0.00016767122 81752.591
0.00022168027 0 0.00017175573 100592.27
0.00022267932 3.5356688e-23 0.00017050412 83498.827
0.00021941241 0 0.00017455174 100714.52
0.0002204289 3.5396834e-23 0.00017329656 85902.609
0.00021712327 0 0.00017730984 105528.33
0.00021816218 0 0.00017605631 88812.318
0.0002158963 -3.5467076e-23 0.00017874795 92122.468
0.00021371918 0 0.00018127424 95201.137
0.00021480743 -3.5296725e-23 0.00018002591 80865.013
0.00021135736 0 0.00018395428 97517.146
0.00021246906 -3.5323189e-23 0.0001827056 81819.338
0.00020897158 0 0.00018660032 98868.138
0.00021010683 3.5346232e-23 0.00018535059 82680.797
0.00020656241 0 0.00018921468 99456.423
0.00020772114 0 0.0001879641 83474.219
0.00020412852 0 0.000191799 99644.529
0.00020531234 0 0.00019054803 83947.886
0.00020166758 0 0.00019435273 99675.548
0.00020287858 0 0.00019310161 84488.324
0.00024725182 0 0.00019499921 166540.47
0.00024974609 0 0.00019499974 210689.26
0.00019917797 0 0.00019687574 99670.981
0.00020041777 3.5401716e-23 0.00019562472 84531.674
0.00024725238 0 0.00019500159 209813.81
0.00024726107 0 0.00019500804 165685.03
0.00019665887 0 0.00019936906 99002.53
0.00019792815 -3.5404483e-23 0.00019811797 84422.425
0.00024725212 0 0.00019999892 183717.9
0.00026317316 -3.5361174e-23 0.0001012492 87163.257
0.00026193953 0 0.00010428965 106881.36
0.00026245995 -3.5322944e-23 0.00010303247 82423.04
0.0002610738 3.5365842e-23 0.00010624914 89471.316
0.00025960029 0 0.00010968478 108303.72
0.0002601484 0 0.00010842295 83935.137
0.00025886505 0 0.00011124908 92951.353
0.00025719834 0 0.00011490561 109206.5
0.00025777725 9.214346e-21 0.00011364408 85202.279
0.00025653611 0 0.00011624903 95209.16
0.00025473802 0 0.00011998578 109288.76
0.00025534658 0 0.00011872585 85745.03
0.00025409196 -3.5380447e-23 0.00012124897 96121.746
0.00025221644 0 0.00012493983 108862.91
0.00025285695 3.5378037e-23 0.00012368265 86015.617
0.00025152488 0 0.0001262489 96650.031
0.00025030311 3.5370971e-23 0.00012852254 86167.401
0.00030969284 -3.5293364e-23 0.00016500676 180559.99
0.00034971289 0 0.00019248732 194635.28
0.00035963913 0 0.00019249908 166811.77
0.00036210242 0 0.00019248869 185422.72
0.00037212503 0 0.00019249666 168018.2
0.00024978012 0 0.00019498314 171925.38
0.00025723235 0 0.0001949942 171089.88
0.00025962346 0 0.00019499914 211429.87
0.0002597465 0 0.00019499648 172234.8
0.00026723197 0 0.00019499977 177482.7
0.00026725497 0 0.00019499289 185948.89
0.00027472463 0 0.00019499985 179228.16
0.00027722217 0 0.00019499954 167298.25
0.00028721165 0 0.00019499886 167442
0.00034966001 0 0.00019250131 205907.1
0.00035963737 0 0.00019250278 168346.76
0.00036210299 0 0.00019251114 187418.67
0.00037212578 0 0.00019472523 207504.3
0.00037212856 0 0.00019474902 208554.13
0.0002497631 -3.5294891e-23 0.00019501245 165751.82
0.00025225 3.529339e-23 0.00019500059 192962.31
0.00025722265 0 0.00019500947 174917.15
0.00025742741 0 0.00019500332 206619.56
0.00025976238 0 0.00019500971 177458.42
0.00026473381 0 0.00019500009 209214.97
0.0002672162 0 0.00019500582 182571.44
0.00026729362 0 0.00019501042 197447.12
0.00026973101 0 0.00019500046 176420.15
0.00027721829 0 0.00019504544 204824.67
0.00027723875 0 0.00019745696 180270.93
0.00028720735 0 0.00019747778 192504.43
0.00028722778 0 0.00019746793 175228.92
0.00029470471 0 0.00019749979 167530.35
0.00029717698 0 0.00019749017 181381.54
0.00029721305 0 0.00019748979 167053.32
0.00030469457 0 0.00019749968 167525.05
0.00030715503 0 0.00019749443 201370.09
0.00031468471 0 0.00019749971 166884.14
0.00031469204 0 0.00019749554 168641.31
0.0003721202 0 0.00019500756 168657.2
0.00037213048 -7.0586645e-23 0.00019500288 168369.65
0.00027722814 0 0.00019750738 168187.84
0.00028720556 0 0.00019750647 167711.59
0.00028721807 -7.8187874e-18 0.00019750536 167456.02
0.00029717674 0 0.00019750969 182271.71
0.00029721036 3.5293973e-23 0.00019750796 167331.46
0.00030715769 0 0.0001975073 195376.42
0.00031468133 0 0.00019751155 186367.41
0.00031470067 0 0.0001975222 169142.09
0.00032467491 0 0.00019751575 218173.55
0.00032467603 3.5293151e-23 0.00019778328 206567.79
0.00033466293 0 0.00019750035 201852.07
0.0003371341 0 0.00019750133 214083.57
0.00033958775 0 0.00019750184 214434.63
0.00034965108 0 0.00019999934 169574.42
0.00049699724 0 0.00016749552 114789.93
0.00049947877 0 0.00016748052 142607.69
0.00048700664 0 0.0001699952 149305.89
0.00048701583 0 0.00016999676 121685.53
0.00049699927 0 0.00016755324 141623.51
0.00049948919 0 0.00016758383 132947.78
0.00048699304 0 0.00017005554 178314.55
0.00048701496 0 0.00017003393 173864.42
0.00049699649 0 0.00017000516 145550.74
0.00049948629 0 0.00017000948 199307.81
0.00047700041 0 0.00017496452 171689.96
0.00047703372 0 0.00017497602 177725.36
0.00046203299 0 0.00017504964 209354.23
0.00046204232 0 0.00017726462 208412.1
0.00047701144 0 0.0001750105 169619.2
0.00047703191 7.0587472e-23 0.00017500928 169178.45
0.00044455411 0 0.0001799991 168743.68
0.00044457558 0 0.00017998897 175501.54
0.0004620414 0 0.00017750456 169202.63
0.00044454364 0 0.00018001842 169958.48
0.00044458802 7.0591321e-23 0.00018003024 169204.32
0.00045455207 0 0.00018249115 169445.39
0.00045453604 0 0.00018253582 192807.35
0.00045456353 0 0.00018256423 189071.99
0.00042708363 0 0.00018749992 216993.01
0.00045454213 0 0.00018500281 167754.07
0.00045454905 0 0.00018500394 167866.26
0.00040459523 0 0.00018999956 171525.6
0.00041708203 0 0.0001899995 164411.5
0.00042710319 0 0.00018750359 205356.59
0.00043704743 -2.8343871e-18 0.0001899848 166835.17
0.00043707852 0 0.00018998411 167204.04
0.00038461253 0 0.00019249767 167130.79
0.00038461879 0 0.00019249639 166866.56
0.00039458128 0 0.00019249312 187908.34
0.00039461067 0 0.00019249445 166189.02
0.00040458547 0 0.00019245137 194672.14
0.00040459645 0 0.00019249139 197795.7
0.00041707136 0 0.00019248756 166064.1
0.00041709143 0 0.00019249384 167618.32
0.00043704065 0 0.0001900264 169385.8
0.00043708234 0 0.00019002368 169608.97
0.00038459634 0 0.00019496395 175706.91
0.00038461873 0 0.00019497238 203726.41
0.00039457716 0 0.00019251038 180757.68
0.00039461051 0 0.00019250525 164668.91
0.00041707734 0 0.00019499113 166698.8
0.0004245747 0 0.00019499983 170492.41
0.00042703984 0 0.00019498921 185381.56
0.00042708243 0 0.00019499028 167824.69
0.00042703242 0 0.00019502412 168418.15
0.00042708515 7.0588169e-23 0.00019501342 167486.46
0.00049200378 0 0.00019749619 168193.86
0.00049445609 0 0.00019749402 204925.2
0.00041720962 0 0.0001999921 202118.22
0.00044953787 0 0.00019998352 169530.28
0.00044957473 0 0.00019998214 169758.96
0.00045953643 0 0.0001999967 167889.68
0.00045954396 0 0.00019999624 167760.52
0.00049200539 0 0.00019750193 166493.7
0.00049447732 0 0.00019750673 191518.78
0.00012369647 -1.7815191e-23 0.00025190557 101292.34
0.00011863563 0 0.00025438037 100799.32
0.00012113304 0 0.00025318214 87919.623
0.00012244486 0 0.00025253365 81900.311
0.00011216518 0 0.00025740141 114372.14
0.00011364082 0 0.00025670616 96820.818
0.00011613095 -1.7835181e-23 0.00025557669 87244.664
0.00010677941 0 0.00025974094 112870.17
0.00010864603 0 0.00025890861 92449.682
0.00011090673 0 0.00025794569 85549.703
0.00010120272 0 0.00026201657 104714.93
0.00010365127 0 0.00026100935 88775.848
0.00010552119 0 0.00026026109 83486.011
9.4207036e-05 0 0.00026474083 114082.31
9.6159156e-05 0 0.00026395556 92296.843
9.8656519e-05 0 0.00026302639 86182.527
9.9949926e-05 -1.7655333e-23 0.00026251996 82274.892
8.6896799e-05 0 0.00026732732 116773.04
8.8667113e-05 0 0.00026667854 95475.497
9.1164452e-05 0 0.00026579445 86869.162
9.2950596e-05 1.7749427e-23 0.00026519687 83253.828
7.9265971e-05 0 0.0002697996 116393.56
8.1175154e-05 0 0.00026915502 95031.156
8.3672463e-05 0 0.00026832488 86379.551
8.5644546e-05 -8.8982086e-24 0.00026773724 83667.79
7.130846e-05 0 0.00027216807 109905.83
7.3683305e-05 0 0.00027140104 90312.384
7.6180574e-05 0 0.00027065257 84975.419
7.8016006e-05 -8.8902147e-24 0.00027017467 83307.891
6.1453171e-05 0 0.00027474321 111963.45
6.3694412e-05 0 0.00027409937 92461.965
6.6191604e-05 0 0.0002734335 85541.326
6.8688818e-05 0 0.00027284529 84559.705
7.005063e-05 0 0.00027253393 83696.368
4.909741e-05 0 0.00027734082 113807.25
5.1208902e-05 0 0.00027690553 97712.914
5.370593e-05 0 0.0002763491 87469.907
5.6203e-05 0 0.00027584763 84337.58
5.8700106e-05 0 0.0002753593 84213.221
6.0200853e-05 0 0.00027506419 83548.776
3.4062621e-05 0 0.00027986165 111183.13
3.6228103e-05 0 0.00027949554 97252.675
3.8724677e-05 0 0.00027898549 85595.052
4.1221364e-05 0 0.00027856329 81587.959
4.3718143e-05 0 0.00027817519 81230.818
4.6215e-05 0 0.00027780288 81692.314
4.7851546e-05 -2.8819926e-21 0.00027756995 82168.916
1.665e-06 0 0.00028202364 80005.249
3.885e-06 0 0.00028211049 88138.732
6.327e-06 0 0.00028201263 87376.379
8.8007143e-06 0 0.00028190697 86355.116
1.1285e-05 0 0.00028179013 85541
1.3774091e-05 0 0.00028166841 85073.826
1.6265769e-05 0 0.00028150156 83302.949
1.8759e-05 0 0.00028133165 81963.551
2.1253235e-05 0 0.00028115889 81072.533
2.3748158e-05 0 0.00028098294 80634.979
2.6243571e-05 0 0.00028076007 81840.397
2.8739348e-05 0 0.00028048991 81734.906
3.12354e-05 0 0.00028021996 81680.972
3.2813588e-05 0 0.00028004888 81328.768
1.4985088e-05 0 0.00029001193 167572.03
4.9950616e-05 0 0.00029750161 184807.37
0.00019410911 0 0.00020183348 97346.681
0.00019540889 3.5401997e-23 0.00020058269 83951.949
0.0001915286 0 0.00020427041 96087.077
0.00019285887 0 0.00020302 82869.442
0.00018891763 0 0.00020668193 95571.056
0.00019027795 0 0.00020543184 82046.044
0.0001862748 0 0.00020906911 94662.366
0.00018766689 -3.5359645e-23 0.0002078201 81228.799
0.0001835993 0 0.00021143208 92787.044
0.00018502385 0 0.00021018458 80453.814
0.00017963605 0 0.00021484522 103125.5
0.00018107162 0 0.00021361646 90112.513
0.00018234777 0 0.00021252627 79633.6
0.00017688426 0 0.00021713836 98691.532
0.00017838728 0 0.00021588413 87214.595
0.00017409422 0 0.00021940903 98765.999
0.00017563164 3.5454888e-23 0.00021815604 84619.574
0.00017126777 0 0.0002216618 96808.616
0.00017284267 0 0.00022041074 82390.27
0.00016713551 0 0.00022485129 105960.41
0.00016858433 0 0.00022374178 91692.47
0.00017001499 0 0.00022264434 80779.406
0.00016421439 0 0.00022704023 100303.38
0.00016588757 -1.7758254e-23 0.00022578496 87283.857
0.00016123306 0 0.00022920576 97782.507
0.00016296052 -1.77139e-23 0.00022795335 83513.587
0.00015693877 0 0.00023222114 103539.64
0.00015859453 0 0.00023105817 89991.884
0.00015997834 0 0.00023009819 80848.162
0.00015385414 0 0.0002343312 100099.36
0.00015568646 0 0.0002330746 85034.422
0.00014941939 0 0.00023722401 104646.52
0.00015110219 0 0.0002361339 90422.442
0.00015259845 -1.7675524e-23 0.00023516652 81488.327
0.00014619986 0 0.00023927593 98716.229
0.00014816736 1.7743392e-23 0.00023801745 84576.813
0.00014161035 0 0.00024205354 103418.54
0.00014360987 0 0.00024084473 88244.968
0.00014494306 0 0.00024005436 80790.237
0.00013695659 0 0.00024476892 105983
0.000138615 0 0.00024382668 91345.464
0.00014035654 1.7708875e-23 0.00024279426 82460.964
0.0001322299 0 0.00024742503 109150.75
0.00013362014 0 0.00024665955 94868.62
0.00013570312 0 0.0002454734 84062.564
0.00012865966 0 0.00024935115 97656.222
0.00013098067 0 0.00024809787 85537.624
0.00012612787 0 0.00025067294 86891.89
0.00012740679 1.7651269e-23 0.00025001811 81288.629
0.00024226351 3.5293916e-23 0.00029000601 158586.14
0.00018481474 0 0.00029250095 186865.49
0.00026473444 0 0.00020249953 167384.96
0.00026972575 0 0.00020249759 171899.54
0.0003496417 0 0.00020000734 168554.72
0.00026471784 0 0.00020497504 169654.07
0.00026721266 0 0.00020498759 169153.59
0.00026472463 0 0.00020747965 175050.66
0.00028221811 0 0.00021054034 195115.42
0.00028221771 -3.5293066e-23 0.00021516503 205462.84
0.00028221765 3.5293058e-23 0.00021830079 186310.5
0.0002822178 0 0.00022125 182561.58
0.00028221759 0 0.0002249072 205900.44
0.00033216388 0 0.00022499624 166163.82
0.00033218679 0 0.00022498926 171975.13
0.00034215709 0 0.0002249996 166313.49
0.00034215932 0 0.00022499783 166806.78
0.00034963749 -8.8929616e-22 0.0002225142 166704.12
0.00035212637 0 0.00022251127 172545.03
0.00028221763 0 0.00022702405 191521.21
0.00033215774 0 0.00022501022 164453.92
0.00033218755 0 0.00022501281 166529.83
0.00034214959 0 0.00022747513 184775.81
0.00034216614 0 0.00022747402 183910.46
0.00028221764 0 0.00022853442 183098.74
0.000297221 0 0.00022750682 177205.13
0.00032467475 0 0.00022999514 209702.46
0.00032468565 0 0.00022991061 198194.82
0.0003696297 0 0.00022999968 165555.54
0.00037209552 0 0.00022998863 182207.69
0.00028221876 0 0.00023046406 191422.51
0.00036962823 0 0.00023000188 164192.57
0.0003720955 0 0.00023001136 180336.5
0.00028221878 0 0.00023258083 204780.47
0.00033466458 0 0.00023499964 164023.5
0.00033715643 0 0.00023499638 165910.53
0.000337166 0 0.00023499627 164082.39
0.00033714526 0 0.00023502151 164938.15
0.00033716589 0 0.00023500954 180198.08
0.00027973051 0 0.00023750665 162435.07
0.00032720172 -3.9530887e-19 0.00024251231 176652.42
0.00033466527 0 0.00024250064 176768.83
0.00033216917 3.5293217e-23 0.00025000013 209704.92
0.00036962813 0 0.00025229035 205301.3
0.0003696301 0 0.00025247189 215371.36
0.0002922671 3.5300236e-23 0.00025502388 177960.83
0.00033215492 0 0.00025750317 191464.98
0.00033464986 -4.2712913e-18 0.00025750215 202250.65
0.00034216115 0 0.00026000888 179386.26
0.00032225919 0 0.0002649713 182615.76
0.00037212214 0 0.00026252829 194951.6
0.00037212856 0 0.00026250477 193229.22
0.00036463011 0 0.0002723725 206972.98
0.00036463546 0 0.00027125 188905.81
0.00033717991 0 0.00027500159 197888.96
0.00035963829 0 0.00027749804 163173.73
0.00035963196 0 0.00027758487 195168.88
0.00035964475 7.0587011e-23 0.00027761785 199514.18
0.00029471724 0 0.0002800045 176660.32
0.00035963378 0 0.00028000623 150826.05
0.00035964482 -7.0587024e-23 0.00028000465 150915.03
0.00036213814 0 0.00029000015 177403.65
0.00029970546 -3.5293682e-23 0.00029250546 150717.09
0.00032966722 0 0.00029500034 193542.62
0.00033210508 0 0.0002950024 199477.54
0.00033412462 0 0.00029500011 186942.76
0.00034465791 3.5293337e-23 0.0002975193 191115.93
0.00041726877 0 0.00020000269 202553.96
0.00044203165 0 0.00020248006 169486.67
0.00044206699 0 0.00020248472 169414.1
0.0004495437 0 0.00020000917 168656.42
0.00044957035 0 0.00020001147 171826.25
0.00045204788 -7.0586138e-23 0.00020000041 166271.58
0.00045953209 0 0.00020008133 204974.81
0.00045954411 0 0.00020246453 203980.16
0.00044203761 0 0.00020251343 168645.7
0.0004420669 0 0.0002025104 166139.27
0.00047700298 0 0.00020496612 168991.06
0.00048700126 0 0.00020499253 167755.88
0.00048701767 0 0.00020499564 166227.19
0.00041458365 0 0.0002074987 160625.05
0.00041459335 0 0.00020749201 162576.74
0.0004320618 0 0.00020749419 166304.85
0.00043213637 0 0.00020749417 206489.38
0.00048699571 0 0.00020502685 166920.32
0.0004870208 7.0587282e-23 0.00020501889 175841.14
0.00038210063 0 0.00020998298 168432.34
0.00038213551 0 0.0002099826 167456.94
0.00041458411 0 0.00020784381 197066.37
0.00041459548 0 0.00020756986 196000.62
0.00043206045 0 0.0002075064 166904.01
0.00043216831 -7.0602543e-23 0.00020750511 208725.47
0.00047202724 0 0.00020999977 164599.19
0.00049450568 0 0.00020750014 194474.96
0.00038209798 0 0.00021002103 168237.02
0.00038213798 0 0.00021002109 167443.38
0.00039709316 0 0.00021249493 169359.81
0.00039710731 0 0.00021249527 162673.81
0.00047200397 0 0.00021247101 166061.77
0.00047203189 0 0.00021248247 189607.8
0.00047702953 0 0.0002124996 209516.35
0.00039707459 0 0.00021253383 165942.92
0.00039710714 7.0586904e-23 0.00021251264 179344.03
0.00040708769 0 0.00021474467 201612.44
0.00040709275 0 0.00021498614 213208.39
0.00042457436 0 0.0002149995 165965.77
0.00042482637 0 0.00021499742 205021.32
0.00042708135 0 0.00021499273 167238.41
0.00047200757 -6.1372896e-19 0.00021250567 187479.23
0.00047203094 -7.0586594e-23 0.00021250178 172591.89
0.00047951569 0 0.00021499757 169837.23
0.00042698637 0 0.00021500175 212489.28
0.00042707709 0 0.00021500461 167101.09
0.00044455472 0 0.00021749977 166860.74
0.00044704831 0 0.00021749841 181387.15
0.00044954535 0 0.00021749763 173629.35
0.00047951572 0 0.00021749813 176577.69
0.00044455412 0 0.00021750165 173136.56
0.00044704794 0 0.00021750284 168124.42
0.00047947154 0 0.00021751637 184210.98
0.00044455374 0 0.0002224989 167011.3
0.00040957245 0 0.0002250098 170194.3
0.00041206928 0 0.00022501167 166370.56
0.00041957273 0 0.00022749267 166049.72
0.00041959455 0 0.0002274895 167766.27
0.00042956803 0 0.00022749815 166542.69
0.00042957319 0 0.00022749694 166690.62
0.00043956044 0 0.00022500028 166871.44
0.00041957355 0 0.00022750645 164958.05
0.00041959384 0 0.00022750965 166501.53
0.00042956374 0 0.00022756167 204029.75
0.00042957183 0 0.00022997184 209150.31
0.00046953017 0 0.00022751327 217343.95
0.00048703293 0 0.00022999815 207754.16
0.00046953115 0 0.0002300023 175076.43
0.00048700972 0 0.0002300026 166449.23
0.00048706847 0 0.00023001204 193643.79
0.00037962008 0 0.00023499847 209876.06
0.00046953169 -7.0586333e-23 0.00023250099 170157.69
0.00047702613 0 0.00023499563 166403.16
0.0003796205 0 0.00023502906 212081.38
0.00045942316 0 0.00023500031 205736.82
0.00046199825 0 0.00023500103 207481.13
0.00046204724 0 0.00023500079 203123.94
0.00046453656 0 0.00023500092 163286.83
0.00047701505 0 0.00023501393 170011.01
0.00047704555 -7.0589489e-23 0.00023502468 163141.51
0.00037962126 7.0586313e-23 0.00023750837 199054.94
0.00043706404 0 0.00023999984 203997.33
0.00048695146 0 0.00023750021 194206.56
0.00048946121 0 0.00023750103 192821.9
0.0004895779 0 0.00023750139 191971.28
0.00049202409 7.0588458e-23 0.00023750265 179560.56
0.00043708 0 0.00024000208 169363.98
0.00047202237 0 0.00024249429 155273.5
0.00047203893 0 0.00024249106 157838.81
0.00038211519 0 0.00024250237 164948.83
0.00038460797 0 0.00024251387 172434.71
0.00043206635 0 0.00024499951 156517.55
0.00044955569 0 0.0002425036 144076.84
0.00045703432 0 0.00024250918 142285.04
0.00045706257 7.0589178e-23 0.00024252869 143518.83
0.00047201922 0 0.00024251325 143306.96
0.00047203883 0 0.00024251442 143516.63
0.00049201251 0 0.00024499505 142508.66
0.00040460363 0 0.00024501678 156995.21
0.00042707226 0 0.00024749973 138203.22
0.00042956811 0 0.00024749797 138046.6
0.00043957686 0 0.00024747974 140306.3
0.00046451382 0 0.00024747789 139700.2
0.00046461281 0 0.00024743554 140930.88
0.00047695106 0 0.00024744217 140961.21
0.00047706659 0 0.00024745392 141212.57
0.00049200016 0 0.00024519382 175893.34
0.00049204274 0 0.00024718803 173471.29
0.00040459565 0 0.00024750334 183423.27
0.00042707207 0 0.00024750204 179096.29
0.00042956512 0 0.00024751103 166080.71
0.00043956637 0 0.00024996892 184349.93
0.0004470686 0 0.00024998129 151123.87
0.00045452138 0 0.00024997134 151925.68
0.00045497298 0 0.00024998919 175864.64
0.00046449005 0 0.00024755212 163409.81
0.00046461403 0 0.00024762899 166225.48
0.0004769649 0 0.00024755094 165464.2
0.00047707061 0 0.00024754764 164776.17
0.00049200615 0 0.00024750134 162188.81
0.00049203259 7.0589678e-23 0.00024751839 162470.68
0.0003995908 0 0.00025249564 174948.75
0.00040208957 0 0.00025249734 182668.13
0.00040459617 0 0.00025249699 175577.58
0.00042957227 7.0586452e-23 0.00025000198 164718.97
0.00043704331 0 0.00025247313 161234.38
0.00043945313 0 0.00025244637 166106.4
0.00043958147 0 0.00025243257 180962.91
0.0004470367 0 0.00025006226 185757.98
0.00044711316 7.0595655e-23 0.00025016765 179130.44
0.00045450768 0 0.00025003495 167144.44
0.00045466235 0 0.00025005575 176760.89
0.00039958553 0 0.00025250964 168283.02
0.00040459571 0 0.00025499552 199792.97
0.00043700983 0 0.00025255242 168572.98
0.00043728295 -7.0621658e-23 0.00025252864 197404.96
0.00043956234 -7.0586455e-23 0.00025250209 167162.15
0.00044704783 0 0.00025250441 167302.62
0.00044706144 -7.058749e-23 0.00025250926 167521.8
0.00040459518 0 0.00025501943 215886.66
0.00041708252 0 0.00025747412 217326.59
0.00042957214 0 0.00025749874 167590.47
0.00039210762 -7.05861e-23 0.00025750091 203881.15
0.00041708283 0 0.0002575202 215991
0.00042957277 0 0.00025999462 174316.62
0.00041708263 -7.0586102e-23 0.00026000321 214081.87
0.00042957111 -7.0586261e-23 0.00026000569 197854.74
0.00037713312 7.0588067e-23 0.00026250738 167112.3
0.00038461471 0 0.00026499978 165252.42
0.00038710208 0 0.00026499787 193866.28
0.00039461249 0 0.00026499807 189243.78
0.00038709256 0 0.00026501281 167007.91
0.00039460289 0 0.00026500201 165371.11
0.0003946412 -7.0592554e-23 0.00026501311 181039.92
0.00040958974 0 0.00026749974 165504.02
0.00040959831 0 0.00026749744 186231.9
0.00038709967 0 0.00026750164 202465.88
0.00040958685 0 0.00026750495 166461.37
0.00040960615 0 0.00026751114 167072.64
0.00042207141 0 0.00026998883 171819
0.00042207971 0 0.00026999461 177280.92
0.00043188742 0 0.00026750032 207495.68
0.00043250617 0 0.00026750003 198247.66
0.00043688991 0 0.00026750003 207967.49
0.00048701215 0 0.00026999982 171434.13
0.00049700019 0 0.00026999775 163765.45
0.00049949196 0 0.00026999146 215457.52
0.00042207668 0 0.00027000502 199048.83
0.00047209708 0 0.00027249775 210152.22
0.00048451485 0 0.00027249956 181257.41
0.00048699352 0 0.00027245797 174155.91
0.00048701555 0 0.00027242632 203451.76
0.00049699925 0 0.00027000395 160644.75
0.00049949135 0 0.00027001333 193655.54
0.00042207678 0 0.00027250025 175706.81
0.00043930671 0 0.00027499965 203521.35
0.00044705222 0 0.00027499976 164320.18
0.00044954881 0 0.00027499918 165565.32
0.00044955171 0 0.00027499866 164140.13
0.00046453176 0 0.00027499804 165512.03
0.00046453783 0 0.00027499785 163986.53
0.00047202329 0 0.00027250497 155351.73
0.00047211356 0 0.00027251121 184155.7
0.00048699041 0 0.00027250359 182618.87
0.00048701989 7.058715e-23 0.00027250723 153454.89
0.00043929791 0 0.00027500015 190582.4
0.0004495442 0 0.00027500955 156949.43
0.0004495511 0 0.0002774957 177266.06
0.00045462916 0 0.00027748963 192329.48
0.00046203686 0 0.00027749928 157108.83
0.00046450599 0 0.0002774629 158370.66
0.00041958396 0 0.00027999958 195856.78
0.00045459711 0 0.00027750469 185648.02
0.00046452948 0 0.00027750313 154054.39
0.00048700639 0 0.00027999494 150817.37
0.00048701717 0 0.00027999547 150098.87
0.00049949839 0 0.00027999417 173353.86
0.00047701891 0 0.00028249627 149785.04
0.00047943635 0 0.00028249442 186310.29
0.00048698999 0 0.0002800587 160742.7
0.00048701547 0 0.00028003216 184085.86
0.00049949912 0 0.00028000604 178926.12
0.00047701545 0 0.00028250715 146765.99
0.00047934265 0 0.00028250377 182268.92
0.00049949936 0 0.00028250135 169517.94
0.00043706214 0 0.00028749965 146824.36
0.00043706393 0 0.00028749865 146555.47
0.00043705619 0 0.0002899792 165449.33
0.00043706776 0 0.00028998433 162589.34