# interfaceEnergyFluxLiquid  FACE_DATA 1568
# x  y  z  interfaceEnergyFluxLiquid
2.5079433e-06 0 9.0023697e-05 0
3.4548204e-07 -3.3087225e-24 9.2641011e-05 0
2.5800945e-06 -4.5808289e-24 9.2589059e-05 0
0.00031194458 3.5293224e-23 1.2499978e-06 90699.607
0.00031193537 -3.5294413e-23 3.7499838e-06 92210.916
0.00031188638 0 6.2499654e-06 90311.309
0.0003118304 -3.5296659e-23 8.7499573e-06 88565.563
0.00031176045 3.5297551e-23 1.1249947e-05 86874.777
0.00031166774 0 1.3749931e-05 84913.858
0.0003115515 0 1.624991e-05 82735.382
0.00031140075 0 1.874989e-05 80074.242
0.00031122175 0 2.1249878e-05 77501.18
0.00031103474 3.5304143e-23 2.3749869e-05 75791.746
0.00031082796 0 2.6249846e-05 74489.021
0.00031056929 0 2.8749812e-05 73114.477
0.00031026884 0 3.1249784e-05 71923.755
0.00030992908 0 3.3749773e-05 70636.522
0.00030956567 0 3.6556297e-05 93327.993
0.00030972992 3.5297588e-23 3.5303858e-05 71148.994
0.00030927692 -3.5312162e-23 3.8749774e-05 84493.827
0.00030892718 3.5312259e-23 4.1249773e-05 78129.093
0.00030859652 0 4.3749779e-05 74961.746
0.00030826601 0 4.6249761e-05 73453.13
0.0003078821 0 4.8749717e-05 72679.363
0.00030742901 0 5.1249681e-05 71239.331
0.00030694849 0 5.3749675e-05 88901.199
0.00030647073 3.5318565e-23 5.6249699e-05 78478.469
0.0003060453 -3.5317037e-23 5.8749717e-05 74856.477
0.00030562388 -3.5319969e-23 6.1249682e-05 74179.816
0.00030511104 -3.5326299e-23 6.3749607e-05 73195.086
0.00030443313 0 6.6435752e-05 91417.867
0.00030474222 0 6.518927e-05 71743.794
0.00030386736 0 6.8749603e-05 78457.44
0.00030329721 3.5328096e-23 7.1249586e-05 74526.287
0.00030267164 3.5333632e-23 7.3749521e-05 72985.063
0.00030187371 0 7.6370451e-05 88787.969
0.00030223512 -3.5297432e-23 7.5128513e-05 70913.616
0.00030120922 3.5333273e-23 7.8749525e-05 76404.174
0.00030052878 3.5336812e-23 8.1249483e-05 73595.599
0.00029951092 0 8.4407215e-05 93629.771
0.00029991172 0 8.3159875e-05 70429.666
0.00036131261 0 8.2504686e-05 129993.61
0.00036338768 0 8.2515908e-05 114429.64
0.00036588517 0 8.2524516e-05 105237.24
0.00036838266 0 8.2527044e-05 100587.99
0.00037088015 0 8.2525464e-05 97992.401
0.00037337764 0 8.2522871e-05 96355.998
0.00029891932 -3.5338855e-23 8.6249459e-05 78605.319
0.00029816125 3.5341166e-23 8.8749432e-05 73699.552
0.00029703791 -2.6811454e-20 9.2019012e-05 93299.87
0.00029746749 -3.532447e-23 9.0770887e-05 70491.272
0.00029643547 0 9.374941e-05 78655.875
0.00029562037 3.5345518e-23 9.624938e-05 73500.027
0.00029446821 0 9.9349252e-05 90457.555
0.00029492611 0 9.8102206e-05 69661.942
0.00037587513 0 8.2521321e-05 95203.083
0.00037837262 0 8.2521023e-05 94301.482
0.00038087011 0 8.2521283e-05 93530.45
0.00038336761 0 8.2521448e-05 92828.808
0.0003858651 0 8.2521335e-05 92169.191
0.00038836259 0 8.2521083e-05 91540.958
0.00039086008 0 8.2520852e-05 90939.696
0.00039335757 0 8.252069e-05 90362.651
0.00039585506 0 8.2520564e-05 89807.76
0.00039835255 0 8.252044e-05 89273.746
0.00040085005 0 8.252031e-05 88759.972
0.00040334754 0 8.2520181e-05 88266.064
0.00040584503 0 8.2520058e-05 87791.639
0.00040834252 0 8.2519943e-05 87336.228
0.00041084002 0 8.2519833e-05 86899.332
0.00041333751 0 8.2519727e-05 86480.447
0.000415835 0 8.2519626e-05 86079.082
0.00041833249 0 8.2519529e-05 85694.741
0.00042082999 0 8.2519437e-05 85326.932
0.00042332748 0 8.2519349e-05 84975.173
0.00042582497 0 8.2519264e-05 84638.99
0.00042832246 0 8.2519184e-05 84317.921
0.00043081996 0 8.2519106e-05 84011.503
0.00043331745 0 8.2519032e-05 83719.269
0.00043581494 0 8.251896e-05 83440.745
0.00043831244 0 8.251889e-05 83175.452
0.00044080993 0 8.2518823e-05 82922.907
0.00044330742 0 8.2518758e-05 82682.634
0.00044580492 0 8.2518696e-05 82454.164
0.00044830241 0 8.2518636e-05 82237.039
0.0004507999 0 8.2518579e-05 82030.814
0.0004532974 0 8.2518525e-05 81835.061
0.00045579489 0 8.2518472e-05 81649.365
0.00045829238 0 8.2518422e-05 81473.329
0.00046078988 0 8.2518374e-05 81306.571
0.00046328737 0 8.2518327e-05 81148.731
0.00046578487 0 8.2518282e-05 80999.466
0.00046828236 0 8.2518239e-05 80858.462
0.00047077985 0 8.2518197e-05 80725.427
0.00047327735 0 8.2518157e-05 80600.093
0.00047577484 0 8.2518119e-05 80482.218
0.00047827234 0 8.2518082e-05 80371.58
0.00048076983 0 8.2518046e-05 80267.98
0.00048326733 0 8.2518012e-05 80171.25
0.00048576482 0 8.2517979e-05 80081.32
0.00048826231 0 8.2517947e-05 79999.129
0.00049075981 0 8.2517918e-05 79935.974
0.0004932573 0 8.2517891e-05 80002.051
0.0004957548 0 8.2517832e-05 79704.256
0.00049825229 0 8.2517942e-05 93891.973
7.492548e-06 0 0.00010751543 0
2.4965085e-06 0 0.0001124635 0
1.4988857e-05 -2.3915864e-20 0.00011000007 0
2.4934582e-06 0 0.00011260994 0
2.481531e-06 0 0.0001150305 0
2.4707225e-06 0 0.00011750905 0
4.9950198e-06 0 0.00012751152 0
2.5021567e-06 0 0.00013246575 0
2.521668e-06 -1.5500268e-21 0.00013484209 0
1.4985091e-05 0 0.00013251273 0
2.5190526e-06 0 0.00013502644 0
1.4985024e-05 0 0.0001374557 0
2.4995381e-06 0 0.00013997697 0
3.7464232e-05 0 0.00014750013 0
1.4989848e-05 0 0.00015500029 0
2.7473137e-05 0 0.00015500293 0
1.2500137e-05 0 0.00016500003 0
1.7478724e-05 0 0.0001650001 0
1.9979842e-05 0 0.00016750465 0
2.4979869e-05 0 0.00016750006 0
1.9979306e-05 0 0.00017000359 0
2.2482022e-05 0 0.00017000735 0
2.4979086e-06 -5.027339e-24 0.00017252859 0
6.244025e-05 0 0.00018000127 0
2.2470186e-05 0 0.00018749995 0
0.00024475648 0 0.00016750006 0
0.00024725321 0 0.0001675001 0
0.00024945045 -3.5335437e-23 0.00018210467 84146.025
0.0002472371 0 0.00018498005 94485.174
0.00024820112 3.5427758e-23 0.00018373232 75310.419
0.00024625145 -3.5433177e-23 0.00018624835 79527.989
0.00024401563 0 0.00018907447 82792.36
0.00024501272 -3.533015e-23 0.00018782414 69547.464
0.00024175222 0 0.00019187952 83513.472
0.00024276608 0 0.0001906282 70801.225
0.00023947081 0 0.00019465247 84409.542
0.00024050286 0 0.00019339913 72768.604
0.00023716777 0 0.00019738813 90395.496
0.00023822136 3.5434907e-23 0.0001961363 75114.528
0.00023599975 -3.5453574e-23 0.0001987481 77141.143
0.00029377841 3.5346669e-23 0.00010124937 75324.826
0.00029290385 -3.5349836e-23 0.00010374933 72168.221
0.00029181035 0 0.00010647359 85616.168
0.00029229797 -3.5303962e-23 0.00010523187 69126.417
0.00029094934 0 0.0001087493 74153.645
0.00028957739 0 0.00011217325 91542.979
0.0002900848 0 0.00011092475 70687.746
0.00028891235 0 0.00011374926 78117.821
0.00028791539 -3.535814e-23 0.00011624923 73038.171
0.00028673453 0 0.0001188973 85300.793
0.00028728019 0 0.00011765592 69471.244
0.00028574089 -3.5361752e-23 0.00012124919 74341.001
0.00028435697 0 0.00012421851 88682.479
0.0002849331 3.5320047e-23 0.00012297575 69663.357
0.0002834454 0 0.00012624914 75227.636
0.00028192825 0 0.00012939548 89459.59
0.0002825293 3.5331974e-23 0.00012815198 70188.92
0.00028105287 3.5369863e-23 0.00013124909 76022.731
0.00027944083 0 0.00013444514 89033.248
0.00028007234 3.5337421e-23 0.00013320231 70446.992
0.00027854335 0 0.00013624903 76069.727
0.00027688192 0 0.00013935889 87524.189
0.00027754944 -3.5334597e-23 0.00013811669 70018.22
0.0002758913 3.5379811e-23 0.00014124898 74991.888
0.00027426247 0 0.00014416471 85328.959
0.00027495827 0 0.00014292109 69176.132
0.00027311511 -3.5384034e-23 0.00014624893 73671.903
0.000271585 0 0.00014889969 82262.088
0.00027231524 0 0.00014765158 68510.134
0.00026959481 0 0.00015227192 88090.091
0.00027033742 -3.537228e-23 0.00015102706 71681.814
0.00025724253 0 0.00015250221 0
0.00026871607 -3.5392481e-23 0.00015374883 77134.722
0.00026681494 0 0.00015682805 84670.749
0.0002675926 -3.5340512e-23 0.0001555813 69711.292
0.00026561279 3.539787e-23 0.00015874876 73626.9
0.00026397629 0 0.0001613134 80381.127
0.0002647768 0 0.00016006547 67952.334
0.0002619167 0 0.00016451127 84452.691
0.00026273292 0 0.00016326254 70539.179
0.0002607503 -3.5407258e-23 0.00016624865 73893.622
0.00030969741 4.6381675e-22 0.00016501732 180434.2
0.00025895877 0 0.00016886243 79200.327
0.000259819 3.530377e-23 0.00016761505 67700.549
0.00025684358 0 0.00017193011 80979.61
0.00025771265 0 0.0001706776 69290.902
0.0002547065 0 0.00017494502 85978.557
0.00025559435 -3.5410191e-23 0.00017369698 71950.297
0.00025377179 -3.5418478e-23 0.00017624852 75754.017
0.00025163621 0 0.00017917191 80506.873
0.00025255699 0 0.00017792141 68668.225
0.0002503892 0 0.00018085259 71542.679
0.00011986171 0 0.00028499223 95243.278
0.00012113304 0 0.00028440343 81896.913
0.00012363045 0 0.00028334807 72733.581
0.00011431455 0 0.00028726741 91403.814
0.00011613823 0 0.00028652234 76334.405
0.00011861688 -1.7829531e-23 0.0002855165 71870.572
0.00010864603 0 0.00028950498 83565.979
0.00011114343 0 0.00028856767 73493.239
0.00011306997 0 0.00028777696 69537.879
0.00010149501 5.055645e-21 0.0002921697 88891.325
0.00010365127 0 0.00029140046 74820.249
0.00010614865 0 0.00029050634 71616.82
0.00010741026 0 0.00029000689 69326.12
9.4120806e-05 0 0.00029473168 90564.887
9.6159156e-05 0 0.00029404787 75623.683
9.8656519e-05 0 0.00029323943 72356.754
0.00010025034 0 0.00029262817 69051.592
8.6463564e-05 0 0.00029719839 88810.125
8.8667113e-05 0 0.00029652049 75453.056
9.1164452e-05 0 0.00029577253 72383.443
9.2876093e-05 0 0.00029516048 69017.149
7.7303751e-05 0 0.00029996594 95324.344
7.8677857e-05 0 0.00029953091 83244.312
8.1175154e-05 0 0.00029883101 73976.785
8.3672463e-05 0 0.00029812429 71876.594
8.5217282e-05 0 0.00029759657 69162.721
0.00023375036 0 0.00020134058 78132.77
0.00023484469 0 0.00020009144 68310.541
0.0002313843 0 0.00020401165 78584.462
0.00023250013 0 0.00020276212 68375.587
0.00022899519 0 0.00020665156 79697.981
0.00023013388 0 0.0002054012 68634.058
0.00022658235 0 0.00020926058 80714.494
0.00022774485 0 0.00020800963 69244.727
0.00022414459 0 0.00021183942 81227.435
0.00022533221 0 0.00021058811 69764.724
0.00022168051 0 0.00021438841 81492.789
0.00022289444 -3.5390636e-23 0.00021313676 70305.657
0.00021918865 0 0.00021690788 81660.57
0.0002204304 0 0.00021565623 70427.778
0.00021666801 0 0.00021939854 81811.946
0.00021793845 0 0.00021814694 70483.574
0.00021411771 0 0.00022186144 81978.808
0.00021541779 0 0.00022061015 70518.104
0.00021153693 0 0.00022429757 82081.541
0.00021286737 0 0.00022304672 70183.45
0.00020892516 0 0.000226708 81866.807
0.00021028635 -3.5376279e-23 0.0002254578 69910.921
0.00020628222 0 0.00022909428 80982.436
0.00020767448 -3.5357915e-23 0.00022784484 69392.036
0.00020360782 0 0.00023145682 79207.66
0.00020503111 -3.5333666e-23 0.00023020871 68837.124
0.00019964877 0 0.00023487217 88264.453
0.00020105134 0 0.0002336693 76727.018
0.00020235645 0 0.00023255122 68276.573
0.00019690749 0 0.00023717164 83223.184
0.00019840099 0 0.00023591837 74130.696
0.00019413063 -8.3589296e-22 0.00023945033 82902.079
0.00019565742 0 0.00023819888 71851.139
0.00019132203 0 0.00024171044 81718.885
0.00019288036 -3.5397758e-23 0.000240461 69975.524
0.00018722339 -2.0022556e-19 0.00024493128 90883.229
0.00018856401 0 0.0002438889 77950.331
0.0001900707 0 0.00024270663 68786.947
0.00018434347 0 0.0002471425 83837.633
0.00018598035 0 0.00024588941 74151.688
0.00018141061 0 0.00024932711 82874.841
0.00018309358 -3.5442426e-23 0.00024807877 71157.051
0.00017718716 0 0.0002524033 90124.206
0.00017857416 0 0.00025140526 77777.674
0.00018015967 0 0.00025024949 68941.167
0.00017417602 0 0.00025454407 84048.887
0.00017594546 0 0.00025329222 73433.842
0.00017110622 0 0.0002566601 80327.162
0.00017292553 0 0.00025541328 70132.103
0.00016673545 0 0.0002596058 85464.383
0.00016858433 0 0.00025837122 74365.672
0.00016985569 1.7649188e-23 0.0002575175 68256.042
0.00016229922 0 0.00026247582 92613.639
0.00016358943 0 0.00026165176 79966.881
0.00016548755 1.7716013e-23 0.00026042611 70435.611
0.00015905783 0 0.00026451157 85099.008
0.00016105755 0 0.00026326193 73538.068
0.0001544847 0 0.00026728637 88176.569
0.00015609708 0 0.00026633173 76471.787
0.00015780875 0 0.00026528714 69672.553
0.00015111681 0 0.00026927723 81320.984
0.00015324375 -1.7749527e-23 0.00026802694 71290.593
0.0001463813 0 0.00027195769 84468.495
0.00014860475 0 0.00027072064 73163.84
0.00014986467 0 0.00027000849 68698.627
0.00014156089 0 0.00027457618 86744.701
0.00014360987 0 0.00027350305 74212.27
0.00014513627 1.7680696e-23 0.00027265572 68869.604
0.00013663532 0 0.00027713194 87467.026
0.000138615 0 0.00027614975 74546.125
0.00014031798 -1.7704053e-23 0.00027524145 69180.328
0.00013158709 0 0.00027962371 86457.206
0.00013362014 0 0.00027866607 74001.378
0.00013539325 0 0.00027776484 69110.517
0.0001264035 0 0.00028205526 84387.435
0.00012862529 0 0.00028106447 72975.479
0.00013034477 1.7710718e-23 0.00028022683 68631.873
0.00012515963 -1.768662e-23 0.00028262965 68325.837
0.0004957548 0 0.00022750201 164343.41
0.00049825229 0 0.00022750423 179950.72
0.00039710975 0 0.00023258117 199976.39
0.00039461035 0 0.00023750393 164390.26
0.00049948603 0 0.00025248756 199350.64
0.00049698764 0 0.00025497384 147775.83
0.00049946783 -7.0590625e-23 0.00025494647 171871.45
0.00049700118 0 0.00025749183 181755.41
0.00049949849 7.0586292e-23 0.00025748674 185535.81
0.00048701231 0 0.00027499981 159028.56
0.0004870338 0 0.00027498781 164053.01
0.0004870084 0 0.00027509172 196282.76
0.00048705343 -7.059201e-23 0.00027516293 175807.5
0.00049695631 0 0.00027746588 159097.53
0.00049945041 7.0593088e-23 0.00027746648 225632.43
0.00048702132 -7.0587358e-23 0.00027750874 151256.47
0.00049697475 0 0.00027752303 151695.69
0.00049945367 -7.0592627e-23 0.00027753234 216884.77
0.00046453527 0 0.00028249965 152771.35
0.00047948934 0 0.00028246899 153264.49
0.00047957645 0 0.00028245769 154668.04
0.00046203703 0 0.0002849995 150461.2
0.0004643733 0 0.00028492424 161074.88
0.00046454547 0 0.00028497104 163832.39
0.00047948234 0 0.00028254086 149868.38
0.00047958529 0 0.00028255538 150686.82
0.000462135 0 0.00028500448 184519.7
0.00046454036 0 0.00028500491 147641.53
0.00042582497 0 0.00029500031 165341.75
0.00042832246 0 0.00029500024 163981.22
0.00043081996 0 0.00029500024 163932.21
0.00043331745 0 0.00029500025 164090.97
0.00043581494 0 0.00029500025 164219.18
0.00043831244 0 0.00029500023 164399.11
0.00044080993 0 0.00029500024 164505.27
0.00044330742 0 0.00029500022 164503.58
0.00044580492 0 0.00029500022 164408.89
0.00044830241 0 0.00029500021 164278.97
0.0004507999 0 0.00029500021 164168.16
0.0004532974 0 0.00029500019 164150.61
0.00045579489 0 0.00029500019 164251.33
0.00045829238 0 0.00029500018 164494.94
0.00046078988 0 0.00029500018 164869.77
0.0004638253 0 0.00029500029 169135.01
0.00046644966 0 0.00029500036 171823.12
0.00046721647 0 0.00029500104 183351.38
0.00046964074 7.0602722e-23 0.00029500179 186040.02
0.00047443684 0 0.00029500193 187181.1
0.00047698513 0 0.00029500445 180628.23
0.00047703849 -7.0588445e-23 0.00029500845 153950.23
0.00047952804 0 0.00029748449 154852.87
0.00048203687 0 0.00029749537 171390.82
0.00048453029 0 0.00029749537 166423.52
0.0004870137 0 0.00029749993 188534.14
0.00048953828 0 0.00029749903 189431.82
0.00049201447 0 0.0002974978 165101.96
0.00049700207 0 0.00029749974 148658.68
0.00049949476 0 0.00029749579 206178.1
0.00048452238 0 0.00029750207 172142.56
0.00048703676 0 0.00029750176 190030.44
0.00048952635 0 0.00029750123 189995.87
0.00049201118 0 0.00029750134 165482.85
6.871521e-05 0 0.00030218417 79476.861
7.1186053e-05 0 0.00030156194 73291.34
7.3683305e-05 0 0.00030095554 71916.002
7.6067841e-05 0 0.00030031861 70969.1
5.664873e-05 0 0.00030483444 83850.44
5.8700106e-05 0 0.00030439402 73548.018
6.1197245e-05 0 0.00030390332 69948.514
6.3694412e-05 0 0.00030341859 69578.686
6.6191604e-05 0 0.00030285907 69611.995
6.7468791e-05 0 0.00030250944 68695.433
4.1717546e-05 0 0.00030737128 83939.734
4.3718143e-05 0 0.00030701817 74122.418
4.6215e-05 0 0.00030660072 69075.443
4.8711923e-05 0 0.00030623369 67846.104
5.1208902e-05 0 0.00030585172 67742.24
5.370593e-05 0 0.00030541933 68160.42
5.5399272e-05 -8.8954152e-24 0.00030509252 67753.887
1.4319565e-05 0 0.00030997476 80579.732
1.6265769e-05 0 0.00030989095 78967.382
1.8759e-05 0 0.00030976441 77025.275
2.1253235e-05 0 0.00030961705 74837.237
2.3748158e-05 0 0.00030943821 72245.665
2.6243571e-05 0 0.00030924022 70000.061
2.8739348e-05 0 0.00030901185 67942.46
3.12354e-05 0 0.00030877724 66892.642
3.3731667e-05 0 0.00030852798 66540.418
3.6228103e-05 0 0.00030822808 67068.043
3.8724677e-05 0 0.00030786609 67007.055
4.0468184e-05 4.4668024e-24 0.0003075858 66325.391
1.665e-06 0 0.00031013781 62143.446
3.885e-06 0 0.00031029337 68912.327
6.327e-06 0 0.0003102244 68081.807
8.8007143e-06 0 0.00031014989 66914.665
1.1285e-05 0 0.00031007329 66148.139
1.307249e-05 1.4800814e-22 0.00031002006 65145.838
0.00010489783 1.7646995e-23 0.00033250099 174228.23
7.7422844e-05 0 0.00034000088 170246.1
4.246051e-05 0 0.00034250059 197985.88
4.9952759e-05 8.8237472e-24 0.00034250033 201730.65
9.2409335e-05 1.764687e-23 0.00034250064 177907.61
9.9904324e-05 0 0.0003425112 173468.77
0.00012237751 1.7646521e-23 0.00034250564 203997.93
6.2437523e-05 0 0.00034501117 204404.15
0.00012237751 0 0.00034749206 209864.39
3.4967477e-05 0 0.00034750074 194940.49
0.00012237753 0 0.00035249071 210802.97
8.2417419e-05 0 0.00036249931 199421.32
5.7440913e-05 0 0.0003649998 200442.98
1.9979961e-05 0 0.0003699696 220456.39
2.9974763e-05 -7.2963505e-20 0.00036750119 200387
9.2404856e-05 0 0.00036750111 176424.41
5.9940341e-05 0 0.00037249907 183816.62
8.2414941e-05 0 0.0003700198 197060.42
4.9949985e-06 0 0.00037257211 234608.12
0.00011488443 0 0.00037500083 165769.91
6.993027e-05 0 0.00038249911 185223.29
2.7473475e-05 0 0.00038250735 208974.86
0.00012238764 -1.7647982e-23 0.00038500025 205936.55
7.4930159e-06 0 0.00038752944 228826.66
1.2480017e-05 -1.0254488e-20 0.00038999955 223680.75
3.9960175e-05 -4.4116493e-24 0.00038750248 208372.38
5.7443049e-05 0 0.00038999902 177299.81
9.9891068e-05 -2.7638174e-19 0.00038999109 166020.04
9.9908308e-05 0 0.00038999194 165651.21
1.2432216e-05 0 0.00039000008 227090.01
2.2478144e-05 0 0.00039000337 210148.35
5.7441198e-05 0 0.00039000695 195343.27
5.744327e-05 0 0.00039000544 198909.58
9.9887442e-05 0 0.00039239124 195447.21
9.9913383e-05 0 0.00039236917 196089.57
6.9931491e-05 0 0.00039499989 202750.77
1.2482319e-05 0 0.00039749994 227286.57
8.2417567e-05 0 0.00039500087 202438.83
8.2418749e-05 8.8233936e-24 0.00039750587 190502.1
0.00015234995 0 0.00034250087 178298.91
0.00013245024 1.7657541e-23 0.00034500043 206985.01
0.00014485426 0 0.00035500056 163643.13
0.00022477211 0 0.00036250217 162784.54
0.00017482366 0 0.00037000174 157685
0.00015609708 0 0.00038750013 182102.35
0.00015859453 0 0.00038750026 180544.97
0.00016109198 0 0.0003875002 180164.55
0.00016358943 0 0.00038750017 180271.52
0.00016608688 0 0.00038750017 180375.56
0.00016858433 0 0.00038750017 180434.15
0.00017108179 0 0.00038750017 180473.06
0.00017357924 0 0.00038750016 180528.2
0.0001760767 0 0.00038750016 180599.23
0.00017857416 0 0.00038750014 180719.52
0.00018107162 0 0.00038750014 180833.92
0.00018356908 0 0.00038750013 180925.51
0.00018606654 0 0.00038750013 181035.09
0.00018856401 0 0.00038750012 181153.95
0.00019106147 0 0.00038750012 181271.72
0.00019355894 0 0.00038750011 181404.59
0.0001960564 0 0.00038750011 181482.82
0.00019855387 0 0.0003875001 181480.94
0.00020105134 0 0.00038750009 181404.18
0.0002035488 0 0.00038750008 181240.52
0.00020604627 0 0.00038750008 181080.57
0.00020854374 0 0.00038750007 181056.15
0.00021104121 0 0.00038750007 181149.66
0.00021353868 0 0.00038750006 181332.68
0.00021603616 0 0.00038750006 181593.93
0.00021853363 0 0.00038750004 181896.03
0.0002210311 0 0.00038750004 182157.05
0.00022352858 0 0.00038750003 182378.5
0.00022602605 0 0.00038750003 182670.07
0.00022852352 0 0.00038750002 183105.14
0.000231021 0 0.00038750002 183538.81
0.00023351848 0 0.0003875 183920.33
0.00023601595 0 0.0003875 184218.1
0.00013986075 1.7646615e-23 0.00039500098 159865.22
0.00013237027 -1.7646889e-23 0.0003975006 184180.36
0.000277224 0 0.00037500063 171050
0.00033965986 0 0.00038249967 170783.38
0.00034215969 0 0.00038249493 171465.38
0.00029469599 0 0.00038261247 194020.34
0.00029471247 3.5293934e-23 0.00038273619 194328.22
0.00033965567 0 0.00038251688 184223.93
0.00033972376 -3.5299663e-23 0.000382544 165387.1
0.00034216294 -3.5293601e-23 0.00038250822 163609.67
0.0002946977 0 0.00038500724 161050.38
0.00029471471 0 0.00038500948 161815.08
0.00030721539 0 0.00038504123 167574.93
0.00035741234 0 0.00038500299 201003
0.00035966073 7.0590146e-23 0.00038500689 181099.75
0.00036459195 0 0.00038500091 210248.72
0.00036464561 7.0588132e-23 0.00038500157 198485.26
0.00036713344 0 0.00038500351 186499.96
0.00028222271 0 0.0003899952 161214.97
0.00028221331 0 0.00039001019 174841.54
0.00028225724 0 0.00039006369 164755.01
0.00032466745 0 0.00039249259 162580.75
0.0003247152 0 0.00039248621 179244.12
0.00033740707 0 0.00039000235 201659.83
0.00034208352 0 0.00039000052 209631.81
0.00034217117 3.5294449e-23 0.00039000048 209973.61
0.00029470197 0 0.00039499696 161901.57
0.00029472753 0 0.00039499324 182559.93
0.00031718133 0 0.00039499914 162404.67
0.00031719026 0 0.00039499103 162806.69
0.00032466329 0 0.00039251215 163394.58
0.00032471742 0 0.00039251742 176095.72
0.00035215091 7.0586762e-23 0.00039250658 170009.9
0.00029469928 0 0.00039500568 161889.07
0.00029472673 -3.5295642e-23 0.00039500708 180482.9
0.00030968973 0 0.00039749971 162116.69
0.00030974107 0 0.00039746693 165024.8
0.00031717717 0 0.0003974672 195270.83
0.00031719321 3.5294232e-23 0.0003951899 199513.05
0.00033466335 0 0.00039749851 163548.93
0.000334671 0 0.00039749887 193823.15
0.00036213726 0 0.00039749973 163310.62
0.00036441112 0 0.00039749827 203237.47
0.00036463909 0 0.0003974954 163553.71
0.00026972311 0 0.00039999358 161211.77
0.0002697477 0 0.00039999343 176130.8
0.00030970268 3.5294484e-23 0.00039750749 165707.94
0.00031717392 0 0.00039750342 176725.21
0.00031718528 -3.5293349e-23 0.00039750283 162943.14
0.00033466283 0 0.00039997857 202539.34
0.00033467325 0 0.00039769933 199828.88
0.00033716985 0 0.00039999358 161938.81
0.00034214429 0 0.00039997781 164337.76
0.00034222277 0 0.00039997587 176397.85
0.00034465515 0 0.0003999997 169351.48
0.0003621305 0 0.00039750767 162670.82
0.0003625936 7.0674831e-23 0.00039750271 194199.6
0.00036463928 0 0.00039750451 162453.61
0.00049949318 0 0.00030749475 203877.84
0.00047701837 0 0.00030999578 147390.11
0.0004792164 0 0.00030999232 176688.07
0.00047952756 0 0.00030999222 147828.53
0.00048699961 0 0.00030998556 148608.24
0.0004870713 0 0.0003099726 153571.51
0.00049698569 0 0.00030996715 156605.89
0.00049947143 0 0.00030994687 175696.46
0.00047702021 0 0.00031000249 161247.6
0.00047918678 0 0.00031000475 196241.44
0.00047952899 0 0.00031000974 161404.92
0.0004870084 0 0.00031000418 161076.44
0.00048705542 0 0.00031000986 186245.5
0.00049700093 0 0.00031000837 185906.38
0.00049949645 0 0.0003100097 180825.58
0.00049700222 0 0.00031499816 191595.59
0.00049949964 -7.0586129e-23 0.00031499857 180227.72
0.00044478198 0 0.00032750078 202197.69
0.00049949662 -7.0586557e-23 0.00033249763 222504.4
0.00049699595 0 0.00033253808 188099.1
0.00049949277 7.0587101e-23 0.0003325609 190092.27
0.00049949924 7.0586187e-23 0.00033500053 224507.54
0.00045457772 0 0.00034499417 190449.37
0.00045453801 0 0.00034500573 162383.33
0.00045460432 0 0.00034501666 182902.09
0.00046952024 0 0.00034748849 163402.29
0.00046955245 0 0.0003474826 164195.45
0.00048200551 -7.784269e-18 0.00034749838 191422.31
0.00049200645 0 0.00034749892 152123.59
0.00049201891 0 0.0003474958 164858.7
0.00046952518 0 0.0003475049 162378.88
0.00046954659 7.0588573e-23 0.00034750975 164651.93
0.00047951908 0 0.00034750092 161199.17
0.00048194409 0 0.00034750522 194361.63
0.00049200274 0 0.00034750523 152408.98
0.00049202241 -7.0588217e-23 0.00034750841 155461.62
0.0003995988 0 0.00035000158 164185.2
0.00038711088 0 0.00035250125 163992.07
0.00044206146 0 0.00035740987 204740.76
0.00048203114 -7.0588076e-23 0.00035501365 160462.22
0.00044205825 0 0.00035997767 209468.2
0.00039710233 0 0.00036499947 179868.2
0.0003995864 0 0.00036497907 162945.68
0.00039961574 0 0.00036497711 163504.26
0.00040958893 0 0.00036499899 162306.42
0.0004095942 0 0.00036499585 163046.73
0.00041958168 0 0.00036499797 164039.6
0.000399588 0 0.00036500467 173133.35
0.00039960716 0 0.00036500543 160348.38
0.00040209952 7.0586434e-23 0.00036500274 160706.95
0.00040958737 0 0.00036505218 202843.49
0.00040959257 0 0.00036741291 203974.3
0.0004195752 0 0.00036500522 161389.26
0.00041959085 0 0.00036501205 162165.04
0.00044954788 0 0.0003674978 163525.9
0.00044955255 0 0.00036749743 163508.19
0.0004320632 0 0.00036999566 162431.98
0.00043455922 0 0.00036999754 174299
0.00044954572 0 0.00036750702 165048.17
0.00044955308 7.0586562e-23 0.00036750547 168032.69
0.00041959324 0 0.00037248863 161897.97
0.00043206492 0 0.00037249588 163189.45
0.00041956981 0 0.00037251013 162647.5
0.00041962464 7.0593588e-23 0.00037253258 164976.44
0.00043706523 0 0.00037499885 174645.79
0.00043707581 0 0.00037500036 212082.86
0.00044705186 0 0.00037749534 200221.68
0.00044952653 0 0.0003774961 195965.47
0.00044955229 0 0.00037749499 172248.03
0.00045454468 0 0.00037749902 181579.78
0.00045704013 0 0.00037748797 191455.82
0.00045704337 0 0.00037748823 203632.93
0.00046453431 0 0.0003750014 169921.06
0.00040958483 0 0.00037999073 167184.5
0.00040962167 0 0.00037995885 164526.87
0.00044955244 -7.0586462e-23 0.00037750135 167839.71
0.00048199811 0 0.00037998065 164425.34
0.00048202608 0 0.00037998856 163905.67
0.00039210659 0 0.0003824991 160932.65
0.00039214374 0 0.00038248519 174031.82
0.00040959642 -7.0587186e-23 0.00038000562 162975.95
0.00048200588 0 0.00038000857 165079.73
0.00048202416 7.0587054e-23 0.00038000656 163693.1
0.0003921219 0 0.00038250017 212123.08
0.00044455424 0 0.00038499923 163879.59
0.00044455863 0 0.00038499643 163515.53
0.00037462631 7.0586327e-23 0.00038500214 164616.73
0.00038211508 0 0.00038749643 163955.95
0.00038214599 0 0.00038748038 164408.18
0.00042210075 0 0.00038504562 170291.53
0.00044455262 0 0.00038742505 207110.02
0.00044456357 0 0.00038747899 175942.32
0.00038212257 0 0.00038750254 171809.67
0.00039454306 0 0.00038997141 173184.51
0.00039462114 0 0.00038998387 163705.6
0.00044455137 0 0.0003875038 163100.7
0.00044456034 0 0.0003875036 164391.04
0.00044705294 0 0.00038750033 163365.7
0.00037464247 0 0.00039249156 172483.79
0.00039457187 0 0.00039001447 175186.78
0.00039461606 0 0.00039001097 164110.25
0.00041708172 0 0.00039249923 162188.81
0.00046452362 0 0.00039248841 163019.71
0.00046455017 0 0.00039248609 163970.05
0.00037468078 0 0.00039251481 185463.08
0.00038212394 0 0.00039499326 164277.66
0.00041208662 0 0.00039499961 174036.07
0.00041458286 0 0.00039499854 164601.78
0.00046452082 0 0.00039251593 163416
0.00046455323 -7.0588849e-23 0.00039251838 163986.49
0.00038210956 0 0.00039501186 164968.73
0.00038214699 -7.0591526e-23 0.00039505424 170306.44
0.00040958967 0 0.00039749916 177567.44
0.00041208714 0 0.00039748343 212073.31
0.0004945036 0 0.00039749989 204566.58
0.00040958903 0 0.00039999858 165217.7
0.0004920047 0 0.00039999815 163963.25
0.00049200908 0 0.00039999821 162121.73
9.9898949e-06 0 0.00040000632 231419.91
9.4827125e-05 0 0.00040249983 205834.45
3.9957757e-05 0 0.00040499982 207518.59
4.7454491e-05 0 0.00040499945 193536.06
9.4886013e-05 0 0.00040250028 205823.92
2.9967855e-05 0 0.00040749986 213140.63
2.9967654e-05 -2.4253202e-19 0.00040750023 211484.77
2.9979045e-05 0 0.00040750167 206868.52
0.00011736211 0 0.0004099788 164037.47
0.00011740627 0 0.00040997657 163879.88
1.2487522e-05 -1.5360037e-23 0.00041248502 229635.43
3.9962473e-05 0 0.00041249386 191002.2
9.2382982e-05 0 0.00041238796 188781.3
9.2416614e-05 0 0.00041238916 199332.91
0.00011735158 0 0.00041004694 166697.71
0.00011741749 0 0.0004100488 166379.06
4.7452288e-05 0 0.00041250162 202289.81
7.9923621e-05 8.8236596e-24 0.0004125101 181825.49
9.2387389e-05 0 0.00041251908 167975.39
9.2421173e-05 0 0.00041251329 167589.34
0.00010739253 0 0.00041749873 206793.13
9.2407233e-05 0 0.00042238627 204832.74
9.2407649e-05 0 0.00042239853 205914.6
0.00010739265 0 0.00042002023 206583.54
4.2459941e-05 0 0.00042250338 181940.16
9.990096e-05 0 0.00042749977 188969.17
7.2430102e-05 8.8235768e-24 0.00042750091 183363.94
8.7414994e-05 0 0.00043250002 207654.05
9.489724e-05 0 0.00043250006 207025.54
9.7322861e-05 0 0.00043250016 204603.74
9.7612811e-05 -1.7684513e-23 0.00043250005 200731.29
9.9994051e-05 -1.7663112e-23 0.00043250002 204742.93
0.00010250026 0 0.00043250002 204443.34
0.00012486754 0 0.00043498759 166171.22
6.2437511e-05 -8.8232614e-24 0.00043501103 209222.33
0.00011488012 0 0.0004374946 163492.98
0.00011489889 0 0.0004374919 166602.47
0.0001248688 0 0.0004350074 163179.6
3.49657e-05 0 0.00043750168 193827.12
0.00011488165 0 0.00043750648 170060.72
0.00011489284 -1.7647724e-23 0.00043750444 168303.38
0.00011738343 -1.7646659e-23 0.00043750627 194528.19
4.245744e-05 0 0.00044000208 211246.51
7.4930508e-05 0 0.00044000148 186711.42
1.498091e-05 0 0.00044250054 223466.8
4.245748e-05 0 0.0004450027 212778.27
4.4953238e-05 1.450857e-22 0.00044500305 183352.98
4.495694e-05 2.9327592e-19 0.00044500189 179675.04
4.9878745e-05 0 0.00044500004 208451.72
6.493382e-05 0 0.00044749901 172002.04
2.7475174e-05 4.4120593e-24 0.0004475004 213515.72
3.4963276e-05 0 0.00044750017 210788.73
3.4969537e-05 -4.4122023e-24 0.0004475044 186419.1
6.493192e-05 0 0.00044999745 172050.74
6.4936854e-05 0 0.00044999826 171365.01
7.7422969e-05 0 0.0004499994 168560
0.00011986379 0 0.00044998947 165652.19
0.00011989662 0 0.00044998361 164619.45
2.246961e-05 0 0.00045000018 224763.12
6.4937271e-05 0 0.0004500042 175173.12
6.7432926e-05 -8.8233156e-24 0.00045000619 202388.47
7.7421789e-05 0 0.00045249234 199370.2
7.7423093e-05 0 0.00045247474 205263.3
0.00011987057 0 0.00045000683 165680.86
0.00011989413 -1.7648599e-23 0.00045001228 164602.45
1.248667e-05 0 0.00045250452 224224.61
1.249051e-05 0 0.00045498004 225150.31