# interfaceEnergyFluxGas  FACE_DATA 1568
# x  y  z  interfaceEnergyFluxGas
2.5079433e-06 0 9.0023697e-05 1.048547e-08
3.4548204e-07 -3.3087225e-24 9.2641011e-05 1.1517385e-08
2.5800945e-06 -4.5808289e-24 9.2589059e-05 1.0391418e-08
0.00031194458 3.5293224e-23 1.2499978e-06 -8.8941071e-10
0.00031193537 -3.5294413e-23 3.7499838e-06 -2.2113416e-10
0.00031188638 0 6.2499654e-06 -1.251319e-10
0.0003118304 -3.5296659e-23 8.7499573e-06 -4.0687771e-10
0.00031176045 3.5297551e-23 1.1249947e-05 -8.7669446e-10
0.00031166774 0 1.3749931e-05 -1.1412406e-09
0.0003115515 0 1.624991e-05 -1.0420999e-09
0.00031140075 0 1.874989e-05 -8.7791379e-10
0.00031122175 0 2.1249878e-05 -5.4812783e-10
0.00031103474 3.5304143e-23 2.3749869e-05 -4.3101262e-11
0.00031082796 0 2.6249846e-05 4.0442244e-10
0.00031056929 0 2.8749812e-05 6.7838839e-11
0.00031026884 0 3.1249784e-05 -6.0947738e-10
0.00030992908 0 3.3749773e-05 -1.8039247e-10
0.00030956567 0 3.6556297e-05 -1.513891e-09
0.00030972992 3.5297588e-23 3.5303858e-05 -1.792923e-09
0.00030927692 -3.5312162e-23 3.8749774e-05 -2.0293325e-09
0.00030892718 3.5312259e-23 4.1249773e-05 -2.3856638e-09
0.00030859652 0 4.3749779e-05 -2.6598468e-09
0.00030826601 0 4.6249761e-05 -2.9757328e-09
0.0003078821 0 4.8749717e-05 -2.9897753e-09
0.00030742901 0 5.1249681e-05 -2.9294175e-09
0.00030694849 0 5.3749675e-05 -9.1701257e-10
0.00030647073 3.5318565e-23 5.6249699e-05 -2.5575159e-10
0.0003060453 -3.5317037e-23 5.8749717e-05 2.8734894e-10
0.00030562388 -3.5319969e-23 6.1249682e-05 -3.4113406e-10
0.00030511104 -3.5326299e-23 6.3749607e-05 -8.3040398e-10
0.00030443313 0 6.6435752e-05 -4.4204486e-11
0.00030474222 0 6.518927e-05 -9.997469e-10
0.00030386736 0 6.8749603e-05 -6.5347061e-11
0.00030329721 3.5328096e-23 7.1249586e-05 -3.8583752e-10
0.00030267164 3.5333632e-23 7.3749521e-05 -1.7357162e-10
0.00030187371 0 7.6370451e-05 -8.1028842e-10
0.00030223512 -3.5297432e-23 7.5128513e-05 0
0.00030120922 3.5333273e-23 7.8749525e-05 -1.2808237e-09
0.00030052878 3.5336812e-23 8.1249483e-05 -1.4368857e-09
0.00029951092 0 8.4407215e-05 -4.2597588e-10
0.00029991172 0 8.3159875e-05 -3.046143e-10
0.00036131261 0 8.2504686e-05 0
0.00036338768 0 8.2515908e-05 0
0.00036588517 0 8.2524516e-05 0
0.00036838266 0 8.2527044e-05 0
0.00037088015 0 8.2525464e-05 0
0.00037337764 0 8.2522871e-05 0
0.00029891932 -3.5338855e-23 8.6249459e-05 -3.1475368e-13
0.00029816125 3.5341166e-23 8.8749432e-05 -3.9782921e-10
0.00029703791 -2.6811454e-20 9.2019012e-05 3.0022684e-10
0.00029746749 -3.532447e-23 9.0770887e-05 -3.5998311e-10
0.00029643547 0 9.374941e-05 -6.3293935e-11
0.00029562037 3.5345518e-23 9.624938e-05 -2.042013e-10
0.00029446821 0 9.9349252e-05 5.0518128e-11
0.00029492611 0 9.8102206e-05 0
0.00037587513 0 8.2521321e-05 0
0.00037837262 0 8.2521023e-05 0
0.00038087011 0 8.2521283e-05 0
0.00038336761 0 8.2521448e-05 0
0.0003858651 0 8.2521335e-05 0
0.00038836259 0 8.2521083e-05 0
0.00039086008 0 8.2520852e-05 0
0.00039335757 0 8.252069e-05 0
0.00039585506 0 8.2520564e-05 0
0.00039835255 0 8.252044e-05 0
0.00040085005 0 8.252031e-05 0
0.00040334754 0 8.2520181e-05 0
0.00040584503 0 8.2520058e-05 0
0.00040834252 0 8.2519943e-05 0
0.00041084002 0 8.2519833e-05 0
0.00041333751 0 8.2519727e-05 0
0.000415835 0 8.2519626e-05 0
0.00041833249 0 8.2519529e-05 0
0.00042082999 0 8.2519437e-05 0
0.00042332748 0 8.2519349e-05 0
0.00042582497 0 8.2519264e-05 0
0.00042832246 0 8.2519184e-05 0
0.00043081996 0 8.2519106e-05 0
0.00043331745 0 8.2519032e-05 0
0.00043581494 0 8.251896e-05 0
0.00043831244 0 8.251889e-05 0
0.00044080993 0 8.2518823e-05 0
0.00044330742 0 8.2518758e-05 0
0.00044580492 0 8.2518696e-05 0
0.00044830241 0 8.2518636e-05 0
0.0004507999 0 8.2518579e-05 0
0.0004532974 0 8.2518525e-05 0
0.00045579489 0 8.2518472e-05 0
0.00045829238 0 8.2518422e-05 0
0.00046078988 0 8.2518374e-05 0
0.00046328737 0 8.2518327e-05 0
0.00046578487 0 8.2518282e-05 0
0.00046828236 0 8.2518239e-05 0
0.00047077985 0 8.2518197e-05 0
0.00047327735 0 8.2518157e-05 0
0.00047577484 0 8.2518119e-05 0
0.00047827234 0 8.2518082e-05 0
0.00048076983 0 8.2518046e-05 0
0.00048326733 0 8.2518012e-05 0
0.00048576482 0 8.2517979e-05 0
0.00048826231 0 8.2517947e-05 0
0.00049075981 0 8.2517918e-05 0
0.0004932573 0 8.2517891e-05 0
0.0004957548 0 8.2517832e-05 0
0.00049825229 0 8.2517942e-05 0
7.492548e-06 0 0.00010751543 1.3452858e-08
2.4965085e-06 0 0.0001124635 2.7680483e-08
1.4988857e-05 -2.3915864e-20 0.00011000007 1.2106119e-08
2.4934582e-06 0 0.00011260994 2.7295751e-08
2.481531e-06 0 0.0001150305 1.6898144e-08
2.4707225e-06 0 0.00011750905 1.1391966e-08
4.9950198e-06 0 0.00012751152 1.0291802e-08
2.5021567e-06 0 0.00013246575 8.4740353e-09
2.521668e-06 -1.5500268e-21 0.00013484209 7.4217782e-09
1.4985091e-05 0 0.00013251273 6.6021247e-09
2.5190526e-06 0 0.00013502644 4.8663194e-09
1.4985024e-05 0 0.0001374557 5.0953827e-09
2.4995381e-06 0 0.00013997697 4.428838e-09
3.7464232e-05 0 0.00014750013 2.6978103e-10
1.4989848e-05 0 0.00015500029 4.3955147e-09
2.7473137e-05 0 0.00015500293 9.4557565e-10
1.2500137e-05 0 0.00016500003 2.1610458e-09
1.7478724e-05 0 0.0001650001 1.0261036e-09
1.9979842e-05 0 0.00016750465 1.072135e-09
2.4979869e-05 0 0.00016750006 -1.854437e-09
1.9979306e-05 0 0.00017000359 -5.9535696e-10
2.2482022e-05 0 0.00017000735 -2.482796e-09
2.4979086e-06 -5.027339e-24 0.00017252859 -1.9533252e-09
6.244025e-05 0 0.00018000127 -1.0453595e-08
2.2470186e-05 0 0.00018749995 -7.3544673e-09
0.00024475648 0 0.00016750006 1.1453567e-10
0.00024725321 0 0.0001675001 5.3968121e-10
0.00024945045 -3.5335437e-23 0.00018210467 -2.3804881e-10
0.0002472371 0 0.00018498005 9.6142651e-12
0.00024820112 3.5427758e-23 0.00018373232 -2.4146952e-10
0.00024625145 -3.5433177e-23 0.00018624835 -1.5572777e-10
0.00024401563 0 0.00018907447 -1.140254e-10
0.00024501272 -3.533015e-23 0.00018782414 -6.171303e-10
0.00024175222 0 0.00019187952 -1.5902201e-10
0.00024276608 0 0.0001906282 1.798108e-11
0.00023947081 0 0.00019465247 2.8175838e-10
0.00024050286 0 0.00019339913 0
0.00023716777 0 0.00019738813 3.3487414e-10
0.00023822136 3.5434907e-23 0.0001961363 8.2361948e-10
0.00023599975 -3.5453574e-23 0.0001987481 5.3609061e-10
0.00029377841 3.5346669e-23 0.00010124937 2.3220679e-10
0.00029290385 -3.5349836e-23 0.00010374933 -2.5475869e-10
0.00029181035 0 0.00010647359 -5.6333415e-10
0.00029229797 -3.5303962e-23 0.00010523187 -8.8183358e-10
0.00029094934 0 0.0001087493 -1.0345178e-10
0.00028957739 0 0.00011217325 3.8610756e-10
0.0002900848 0 0.00011092475 8.1097089e-10
0.00028891235 0 0.00011374926 -2.8761141e-11
0.00028791539 -3.535814e-23 0.00011624923 -1.1167051e-09
0.00028673453 0 0.0001188973 -1.04017e-09
0.00028728019 0 0.00011765592 -1.8250876e-09
0.00028574089 -3.5361752e-23 0.00012124919 -9.6680928e-10
0.00028435697 0 0.00012421851 -6.3162562e-10
0.0002849331 3.5320047e-23 0.00012297575 -1.8675888e-09
0.0002834454 0 0.00012624914 -5.9093108e-10
0.00028192825 0 0.00012939548 -2.4138358e-10
0.0002825293 3.5331974e-23 0.00012815198 -4.7871319e-10
0.00028105287 3.5369863e-23 0.00013124909 -2.2375776e-10
0.00027944083 0 0.00013444514 -8.5379607e-10
0.00028007234 3.5337421e-23 0.00013320231 0
0.00027854335 0 0.00013624903 -1.2165025e-09
0.00027688192 0 0.00013935889 -6.2696835e-10
0.00027754944 -3.5334597e-23 0.00013811669 -1.7557607e-09
0.0002758913 3.5379811e-23 0.00014124898 -6.2146409e-10
0.00027426247 0 0.00014416471 -2.3750954e-10
0.00027495827 0 0.00014292109 -7.5656625e-10
0.00027311511 -3.5384034e-23 0.00014624893 -1.9123366e-11
0.000271585 0 0.00014889969 -5.7167865e-10
0.00027231524 0 0.00014765158 0
0.00026959481 0 0.00015227192 -3.7909581e-10
0.00027033742 -3.537228e-23 0.00015102706 -9.8769052e-10
0.00025724253 0 0.00015250221 -1.0606312e-09
0.00026871607 -3.5392481e-23 0.00015374883 -5.9606866e-10
0.00026681494 0 0.00015682805 -9.2474675e-10
0.0002675926 -3.5340512e-23 0.0001555813 -1.0453623e-09
0.00026561279 3.539787e-23 0.00015874876 -1.5147477e-09
0.00026397629 0 0.0001613134 -1.2777617e-09
0.0002647768 0 0.00016006547 -2.3952867e-09
0.0002619167 0 0.00016451127 -8.0081417e-10
0.00026273292 0 0.00016326254 -1.5611399e-09
0.0002607503 -3.5407258e-23 0.00016624865 -1.2063851e-09
0.00030969741 4.6381675e-22 0.00016501732 0
0.00025895877 0 0.00016886243 -1.1080077e-10
0.000259819 3.530377e-23 0.00016761505 -7.8830046e-10
0.00025684358 0 0.00017193011 3.119718e-10
0.00025771265 0 0.0001706776 -1.6561804e-10
0.0002547065 0 0.00017494502 3.7341115e-10
0.00025559435 -3.5410191e-23 0.00017369698 2.2350396e-10
0.00025377179 -3.5418478e-23 0.00017624852 2.7171729e-10
0.00025163621 0 0.00017917191 -2.1869945e-10
0.00025255699 0 0.00017792141 6.7824634e-10
0.0002503892 0 0.00018085259 -2.0750102e-10
0.00011986171 0 0.00028499223 -3.3099553e-10
0.00012113304 0 0.00028440343 -4.8415563e-10
0.00012363045 0 0.00028334807 1.1085292e-10
0.00011431455 0 0.00028726741 2.6985824e-11
0.00011613823 0 0.00028652234 -3.3737736e-10
0.00011861688 -1.7829531e-23 0.0002855165 -1.4565557e-09
0.00010864603 0 0.00028950498 2.1322502e-10
0.00011114343 0 0.00028856767 -3.2449496e-10
0.00011306997 0 0.00028777696 -8.3025805e-10
0.00010149501 5.055645e-21 0.0002921697 -3.7920375e-10
0.00010365127 0 0.00029140046 -2.0293339e-10
0.00010614865 0 0.00029050634 5.0655534e-10
0.00010741026 0 0.00029000689 9.1422311e-10
9.4120806e-05 0 0.00029473168 8.2951866e-10
9.6159156e-05 0 0.00029404787 4.2885586e-10
9.8656519e-05 0 0.00029323943 -4.3345412e-10
0.00010025034 0 0.00029262817 -8.8419934e-10
8.6463564e-05 0 0.00029719839 5.989837e-10
8.8667113e-05 0 0.00029652049 4.418905e-10
9.1164452e-05 0 0.00029577253 4.5728192e-10
9.2876093e-05 0 0.00029516048 1.5627419e-09
7.7303751e-05 0 0.00029996594 1.1878605e-10
7.8677857e-05 0 0.00029953091 -2.3490588e-10
8.1175154e-05 0 0.00029883101 -1.3829593e-10
8.3672463e-05 0 0.00029812429 9.6295284e-10
8.5217282e-05 0 0.00029759657 1.5868701e-09
0.00023375036 0 0.00020134058 7.3784404e-10
0.00023484469 0 0.00020009144 7.5544314e-10
0.0002313843 0 0.00020401165 2.6867168e-10
0.00023250013 0 0.00020276212 6.8382276e-10
0.00022899519 0 0.00020665156 -1.5602536e-11
0.00023013388 0 0.0002054012 5.7769705e-10
0.00022658235 0 0.00020926058 -4.3881373e-10
0.00022774485 0 0.00020800963 -5.8152363e-10
0.00022414459 0 0.00021183942 -2.5144768e-10
0.00022533221 0 0.00021058811 -5.8153075e-10
0.00022168051 0 0.00021438841 -1.2209837e-10
0.00022289444 -3.5390636e-23 0.00021313676 -4.1412685e-10
0.00021918865 0 0.00021690788 3.0024665e-10
0.0002204304 0 0.00021565623 1.8978598e-10
0.00021666801 0 0.00021939854 4.6430663e-10
0.00021793845 0 0.00021814694 6.128076e-10
0.00021411771 0 0.00022186144 4.6920372e-10
0.00021541779 0 0.00022061015 1.6776271e-10
0.00021153693 0 0.00022429757 1.1641361e-11
0.00021286737 0 0.00022304672 6.063498e-10
0.00020892516 0 0.000226708 -7.1323284e-11
0.00021028635 -3.5376279e-23 0.0002254578 -6.3178428e-10
0.00020628222 0 0.00022909428 -5.677928e-10
0.00020767448 -3.5357915e-23 0.00022784484 -6.4536244e-10
0.00020360782 0 0.00023145682 1.2358754e-10
0.00020503111 -3.5333666e-23 0.00023020871 0
0.00019964877 0 0.00023487217 1.288425e-11
0.00020105134 0 0.0002336693 6.3381053e-10
0.00020235645 0 0.00023255122 7.7305735e-10
0.00019690749 0 0.00023717164 -4.6850685e-10
0.00019840099 0 0.00023591837 3.6174726e-10
0.00019413063 -8.3589296e-22 0.00023945033 -1.0029206e-09
0.00019565742 0 0.00023819888 -9.2298375e-10
0.00019132203 0 0.00024171044 -1.1080097e-09
0.00019288036 -3.5397758e-23 0.000240461 -1.2816519e-09
0.00018722339 -2.0022556e-19 0.00024493128 -8.9321567e-10
0.00018856401 0 0.0002438889 -7.0746762e-10
0.0001900707 0 0.00024270663 -4.3951457e-11
0.00018434347 0 0.0002471425 -8.4516894e-10
0.00018598035 0 0.00024588941 -1.4864807e-09
0.00018141061 0 0.00024932711 -3.5318551e-10
0.00018309358 -3.5442426e-23 0.00024807877 -8.0230763e-10
0.00017718716 0 0.0002524033 -4.5932013e-10
0.00017857416 0 0.00025140526 0
0.00018015967 0 0.00025024949 -4.6044576e-11
0.00017417602 0 0.00025454407 -4.9754484e-10
0.00017594546 0 0.00025329222 -3.6040577e-10
0.00017110622 0 0.0002566601 -1.6211303e-09
0.00017292553 0 0.00025541328 -1.1997881e-09
0.00016673545 0 0.0002596058 -1.2289051e-09
0.00016858433 0 0.00025837122 -2.3009349e-09
0.00016985569 1.7649188e-23 0.0002575175 -3.2236323e-09
0.00016229922 0 0.00026247582 -8.7140804e-10
0.00016358943 0 0.00026165176 -8.1120943e-10
0.00016548755 1.7716013e-23 0.00026042611 -8.5040697e-10
0.00015905783 0 0.00026451157 -1.349894e-09
0.00016105755 0 0.00026326193 -1.5335161e-09
0.0001544847 0 0.00026728637 -1.7718301e-09
0.00015609708 0 0.00026633173 -1.8398511e-09
0.00015780875 0 0.00026528714 -1.4334959e-09
0.00015111681 0 0.00026927723 -1.421059e-09
0.00015324375 -1.7749527e-23 0.00026802694 -2.4400851e-09
0.0001463813 0 0.00027195769 -7.0100383e-10
0.00014860475 0 0.00027072064 -6.3643542e-10
0.00014986467 0 0.00027000849 -8.8999202e-10
0.00014156089 0 0.00027457618 -1.1987108e-10
0.00014360987 0 0.00027350305 -6.0555053e-10
0.00014513627 1.7680696e-23 0.00027265572 -1.4623729e-09
0.00013663532 0 0.00027713194 1.1031833e-09
0.000138615 0 0.00027614975 -3.0253436e-12
0.00014031798 -1.7704053e-23 0.00027524145 -7.6481541e-10
0.00013158709 0 0.00027962371 4.9670624e-10
0.00013362014 0 0.00027866607 1.3658052e-09
0.00013539325 0 0.00027776484 1.8881356e-09
0.0001264035 0 0.00028205526 2.5841851e-10
0.00012862529 0 0.00028106447 3.4934335e-10
0.00013034477 1.7710718e-23 0.00028022683 1.0059507e-09
0.00012515963 -1.768662e-23 0.00028262965 9.6430245e-10
0.0004957548 0 0.00022750201 0
0.00049825229 0 0.00022750423 0
0.00039710975 0 0.00023258117 0
0.00039461035 0 0.00023750393 0
0.00049948603 0 0.00025248756 0
0.00049698764 0 0.00025497384 0
0.00049946783 -7.0590625e-23 0.00025494647 0
0.00049700118 0 0.00025749183 0
0.00049949849 7.0586292e-23 0.00025748674 0
0.00048701231 0 0.00027499981 -8.0382671e-10
0.0004870338 0 0.00027498781 -1.9355619e-11
0.0004870084 0 0.00027509172 -5.6584342e-10
0.00048705343 -7.059201e-23 0.00027516293 0
0.00049695631 0 0.00027746588 0
0.00049945041 7.0593088e-23 0.00027746648 0
0.00048702132 -7.0587358e-23 0.00027750874 0
0.00049697475 0 0.00027752303 0
0.00049945367 -7.0592627e-23 0.00027753234 0
0.00046453527 0 0.00028249965 8.101515e-10
0.00047948934 0 0.00028246899 0
0.00047957645 0 0.00028245769 0
0.00046203703 0 0.0002849995 0
0.0004643733 0 0.00028492424 0
0.00046454547 0 0.00028497104 9.7532416e-11
0.00047948234 0 0.00028254086 0
0.00047958529 0 0.00028255538 0
0.000462135 0 0.00028500448 5.6782926e-10
0.00046454036 0 0.00028500491 8.0210099e-10
0.00042582497 0 0.00029500031 0
0.00042832246 0 0.00029500024 0
0.00043081996 0 0.00029500024 0
0.00043331745 0 0.00029500025 0
0.00043581494 0 0.00029500025 0
0.00043831244 0 0.00029500023 0
0.00044080993 0 0.00029500024 0
0.00044330742 0 0.00029500022 0
0.00044580492 0 0.00029500022 0
0.00044830241 0 0.00029500021 0
0.0004507999 0 0.00029500021 0
0.0004532974 0 0.00029500019 0
0.00045579489 0 0.00029500019 0
0.00045829238 0 0.00029500018 0
0.00046078988 0 0.00029500018 0
0.0004638253 0 0.00029500029 0
0.00046644966 0 0.00029500036 0
0.00046721647 0 0.00029500104 0
0.00046964074 7.0602722e-23 0.00029500179 0
0.00047443684 0 0.00029500193 0
0.00047698513 0 0.00029500445 0
0.00047703849 -7.0588445e-23 0.00029500845 0
0.00047952804 0 0.00029748449 0
0.00048203687 0 0.00029749537 0
0.00048453029 0 0.00029749537 0
0.0004870137 0 0.00029749993 0
0.00048953828 0 0.00029749903 0
0.00049201447 0 0.0002974978 0
0.00049700207 0 0.00029749974 0
0.00049949476 0 0.00029749579 0
0.00048452238 0 0.00029750207 0
0.00048703676 0 0.00029750176 0
0.00048952635 0 0.00029750123 0
0.00049201118 0 0.00029750134 0
6.871521e-05 0 0.00030218417 2.3953781e-10
7.1186053e-05 0 0.00030156194 4.9753709e-10
7.3683305e-05 0 0.00030095554 5.5013808e-10
7.6067841e-05 0 0.00030031861 -3.9704274e-10
5.664873e-05 0 0.00030483444 -4.6816686e-10
5.8700106e-05 0 0.00030439402 -4.8045967e-10
6.1197245e-05 0 0.00030390332 -5.2634228e-10
6.3694412e-05 0 0.00030341859 -5.9188169e-10
6.6191604e-05 0 0.00030285907 -1.8815785e-10
6.7468791e-05 0 0.00030250944 1.8106989e-10
4.1717546e-05 0 0.00030737128 -1.4418944e-09
4.3718143e-05 0 0.00030701817 -1.2285767e-09
4.6215e-05 0 0.00030660072 -6.8315573e-10
4.8711923e-05 0 0.00030623369 1.1376299e-10
5.1208902e-05 0 0.00030585172 -3.6558599e-10
5.370593e-05 0 0.00030541933 -1.4672799e-09
5.5399272e-05 -8.8954152e-24 0.00030509252 -2.0256397e-09
1.4319565e-05 0 0.00030997476 2.6904757e-10
1.6265769e-05 0 0.00030989095 1.0567571e-10
1.8759e-05 0 0.00030976441 -1.4852798e-10
2.1253235e-05 0 0.00030961705 -3.6182637e-10
2.3748158e-05 0 0.00030943821 -1.0489553e-09
2.6243571e-05 0 0.00030924022 -1.2192575e-09
2.8739348e-05 0 0.00030901185 -1.7098424e-09
3.12354e-05 0 0.00030877724 -1.8870482e-09
3.3731667e-05 0 0.00030852798 -2.2598222e-09
3.6228103e-05 0 0.00030822808 -2.2240952e-09
3.8724677e-05 0 0.00030786609 -1.8821398e-09
4.0468184e-05 4.4668024e-24 0.0003075858 -2.0691914e-09
1.665e-06 0 0.00031013781 0
3.885e-06 0 0.00031029337 -7.4842532e-11
6.327e-06 0 0.0003102244 -8.9813869e-10
8.8007143e-06 0 0.00031014989 -1.0138031e-09
1.1285e-05 0 0.00031007329 -1.0278759e-09
1.307249e-05 1.4800814e-22 0.00031002006 -2.4741313e-10
0.00010489783 1.7646995e-23 0.00033250099 0
7.7422844e-05 0 0.00034000088 0
4.246051e-05 0 0.00034250059 0
4.9952759e-05 8.8237472e-24 0.00034250033 0
9.2409335e-05 1.764687e-23 0.00034250064 0
9.9904324e-05 0 0.0003425112 0
0.00012237751 1.7646521e-23 0.00034250564 0
6.2437523e-05 0 0.00034501117 0
0.00012237751 0 0.00034749206 0
3.4967477e-05 0 0.00034750074 0
0.00012237753 0 0.00035249071 0
8.2417419e-05 0 0.00036249931 0
5.7440913e-05 0 0.0003649998 0
1.9979961e-05 0 0.0003699696 0
2.9974763e-05 -7.2963505e-20 0.00036750119 0
9.2404856e-05 0 0.00036750111 0
5.9940341e-05 0 0.00037249907 0
8.2414941e-05 0 0.0003700198 0
4.9949985e-06 0 0.00037257211 0
0.00011488443 0 0.00037500083 0
6.993027e-05 0 0.00038249911 0
2.7473475e-05 0 0.00038250735 0
0.00012238764 -1.7647982e-23 0.00038500025 0
7.4930159e-06 0 0.00038752944 0
1.2480017e-05 -1.0254488e-20 0.00038999955 0
3.9960175e-05 -4.4116493e-24 0.00038750248 0
5.7443049e-05 0 0.00038999902 0
9.9891068e-05 -2.7638174e-19 0.00038999109 0
9.9908308e-05 0 0.00038999194 0
1.2432216e-05 0 0.00039000008 0
2.2478144e-05 0 0.00039000337 0
5.7441198e-05 0 0.00039000695 0
5.744327e-05 0 0.00039000544 0
9.9887442e-05 0 0.00039239124 0
9.9913383e-05 0 0.00039236917 0
6.9931491e-05 0 0.00039499989 0
1.2482319e-05 0 0.00039749994 0
8.2417567e-05 0 0.00039500087 0
8.2418749e-05 8.8233936e-24 0.00039750587 0
0.00015234995 0 0.00034250087 0
0.00013245024 1.7657541e-23 0.00034500043 0
0.00014485426 0 0.00035500056 0
0.00022477211 0 0.00036250217 0
0.00017482366 0 0.00037000174 0
0.00015609708 0 0.00038750013 0
0.00015859453 0 0.00038750026 0
0.00016109198 0 0.0003875002 0
0.00016358943 0 0.00038750017 0
0.00016608688 0 0.00038750017 0
0.00016858433 0 0.00038750017 0
0.00017108179 0 0.00038750017 0
0.00017357924 0 0.00038750016 0
0.0001760767 0 0.00038750016 0
0.00017857416 0 0.00038750014 0
0.00018107162 0 0.00038750014 0
0.00018356908 0 0.00038750013 0
0.00018606654 0 0.00038750013 0
0.00018856401 0 0.00038750012 0
0.00019106147 0 0.00038750012 0
0.00019355894 0 0.00038750011 0
0.0001960564 0 0.00038750011 0
0.00019855387 0 0.0003875001 0
0.00020105134 0 0.00038750009 0
0.0002035488 0 0.00038750008 0
0.00020604627 0 0.00038750008 0
0.00020854374 0 0.00038750007 0
0.00021104121 0 0.00038750007 0
0.00021353868 0 0.00038750006 0
0.00021603616 0 0.00038750006 0
0.00021853363 0 0.00038750004 0
0.0002210311 0 0.00038750004 0
0.00022352858 0 0.00038750003 0
0.00022602605 0 0.00038750003 0
0.00022852352 0 0.00038750002 0
0.000231021 0 0.00038750002 0
0.00023351848 0 0.0003875 0
0.00023601595 0 0.0003875 0
0.00013986075 1.7646615e-23 0.00039500098 0
0.00013237027 -1.7646889e-23 0.0003975006 0
0.000277224 0 0.00037500063 0
0.00033965986 0 0.00038249967 0
0.00034215969 0 0.00038249493 0
0.00029469599 0 0.00038261247 0
0.00029471247 3.5293934e-23 0.00038273619 0
0.00033965567 0 0.00038251688 0
0.00033972376 -3.5299663e-23 0.000382544 0
0.00034216294 -3.5293601e-23 0.00038250822 0
0.0002946977 0 0.00038500724 0
0.00029471471 0 0.00038500948 0
0.00030721539 0 0.00038504123 0
0.00035741234 0 0.00038500299 0
0.00035966073 7.0590146e-23 0.00038500689 0
0.00036459195 0 0.00038500091 0
0.00036464561 7.0588132e-23 0.00038500157 0
0.00036713344 0 0.00038500351 0
0.00028222271 0 0.0003899952 0
0.00028221331 0 0.00039001019 0
0.00028225724 0 0.00039006369 0
0.00032466745 0 0.00039249259 0
0.0003247152 0 0.00039248621 0
0.00033740707 0 0.00039000235 0
0.00034208352 0 0.00039000052 0
0.00034217117 3.5294449e-23 0.00039000048 0
0.00029470197 0 0.00039499696 0
0.00029472753 0 0.00039499324 0
0.00031718133 0 0.00039499914 0
0.00031719026 0 0.00039499103 0
0.00032466329 0 0.00039251215 0
0.00032471742 0 0.00039251742 0
0.00035215091 7.0586762e-23 0.00039250658 0
0.00029469928 0 0.00039500568 0
0.00029472673 -3.5295642e-23 0.00039500708 0
0.00030968973 0 0.00039749971 0
0.00030974107 0 0.00039746693 0
0.00031717717 0 0.0003974672 0
0.00031719321 3.5294232e-23 0.0003951899 0
0.00033466335 0 0.00039749851 0
0.000334671 0 0.00039749887 0
0.00036213726 0 0.00039749973 0
0.00036441112 0 0.00039749827 0
0.00036463909 0 0.0003974954 0
0.00026972311 0 0.00039999358 0
0.0002697477 0 0.00039999343 0
0.00030970268 3.5294484e-23 0.00039750749 0
0.00031717392 0 0.00039750342 0
0.00031718528 -3.5293349e-23 0.00039750283 0
0.00033466283 0 0.00039997857 0
0.00033467325 0 0.00039769933 0
0.00033716985 0 0.00039999358 0
0.00034214429 0 0.00039997781 0
0.00034222277 0 0.00039997587 0
0.00034465515 0 0.0003999997 0
0.0003621305 0 0.00039750767 0
0.0003625936 7.0674831e-23 0.00039750271 0
0.00036463928 0 0.00039750451 0
0.00049949318 0 0.00030749475 0
0.00047701837 0 0.00030999578 0
0.0004792164 0 0.00030999232 0
0.00047952756 0 0.00030999222 0
0.00048699961 0 0.00030998556 0
0.0004870713 0 0.0003099726 0
0.00049698569 0 0.00030996715 0
0.00049947143 0 0.00030994687 0
0.00047702021 0 0.00031000249 0
0.00047918678 0 0.00031000475 0
0.00047952899 0 0.00031000974 0
0.0004870084 0 0.00031000418 0
0.00048705542 0 0.00031000986 0
0.00049700093 0 0.00031000837 0
0.00049949645 0 0.0003100097 0
0.00049700222 0 0.00031499816 0
0.00049949964 -7.0586129e-23 0.00031499857 0
0.00044478198 0 0.00032750078 0
0.00049949662 -7.0586557e-23 0.00033249763 0
0.00049699595 0 0.00033253808 0
0.00049949277 7.0587101e-23 0.0003325609 0
0.00049949924 7.0586187e-23 0.00033500053 0
0.00045457772 0 0.00034499417 0
0.00045453801 0 0.00034500573 0
0.00045460432 0 0.00034501666 0
0.00046952024 0 0.00034748849 0
0.00046955245 0 0.0003474826 0
0.00048200551 -7.784269e-18 0.00034749838 0
0.00049200645 0 0.00034749892 0
0.00049201891 0 0.0003474958 0
0.00046952518 0 0.0003475049 0
0.00046954659 7.0588573e-23 0.00034750975 0
0.00047951908 0 0.00034750092 0
0.00048194409 0 0.00034750522 0
0.00049200274 0 0.00034750523 0
0.00049202241 -7.0588217e-23 0.00034750841 0
0.0003995988 0 0.00035000158 0
0.00038711088 0 0.00035250125 0
0.00044206146 0 0.00035740987 0
0.00048203114 -7.0588076e-23 0.00035501365 0
0.00044205825 0 0.00035997767 0
0.00039710233 0 0.00036499947 0
0.0003995864 0 0.00036497907 0
0.00039961574 0 0.00036497711 0
0.00040958893 0 0.00036499899 0
0.0004095942 0 0.00036499585 0
0.00041958168 0 0.00036499797 0
0.000399588 0 0.00036500467 0
0.00039960716 0 0.00036500543 0
0.00040209952 7.0586434e-23 0.00036500274 0
0.00040958737 0 0.00036505218 0
0.00040959257 0 0.00036741291 0
0.0004195752 0 0.00036500522 0
0.00041959085 0 0.00036501205 0
0.00044954788 0 0.0003674978 0
0.00044955255 0 0.00036749743 0
0.0004320632 0 0.00036999566 0
0.00043455922 0 0.00036999754 0
0.00044954572 0 0.00036750702 0
0.00044955308 7.0586562e-23 0.00036750547 0
0.00041959324 0 0.00037248863 0
0.00043206492 0 0.00037249588 0
0.00041956981 0 0.00037251013 0
0.00041962464 7.0593588e-23 0.00037253258 0
0.00043706523 0 0.00037499885 0
0.00043707581 0 0.00037500036 0
0.00044705186 0 0.00037749534 0
0.00044952653 0 0.0003774961 0
0.00044955229 0 0.00037749499 0
0.00045454468 0 0.00037749902 0
0.00045704013 0 0.00037748797 0
0.00045704337 0 0.00037748823 0
0.00046453431 0 0.0003750014 0
0.00040958483 0 0.00037999073 0
0.00040962167 0 0.00037995885 0
0.00044955244 -7.0586462e-23 0.00037750135 0
0.00048199811 0 0.00037998065 0
0.00048202608 0 0.00037998856 0
0.00039210659 0 0.0003824991 0
0.00039214374 0 0.00038248519 0
0.00040959642 -7.0587186e-23 0.00038000562 0
0.00048200588 0 0.00038000857 0
0.00048202416 7.0587054e-23 0.00038000656 0
0.0003921219 0 0.00038250017 0
0.00044455424 0 0.00038499923 0
0.00044455863 0 0.00038499643 0
0.00037462631 7.0586327e-23 0.00038500214 0
0.00038211508 0 0.00038749643 0
0.00038214599 0 0.00038748038 0
0.00042210075 0 0.00038504562 0
0.00044455262 0 0.00038742505 0
0.00044456357 0 0.00038747899 0
0.00038212257 0 0.00038750254 0
0.00039454306 0 0.00038997141 0
0.00039462114 0 0.00038998387 0
0.00044455137 0 0.0003875038 0
0.00044456034 0 0.0003875036 0
0.00044705294 0 0.00038750033 0
0.00037464247 0 0.00039249156 0
0.00039457187 0 0.00039001447 0
0.00039461606 0 0.00039001097 0
0.00041708172 0 0.00039249923 0
0.00046452362 0 0.00039248841 0
0.00046455017 0 0.00039248609 0
0.00037468078 0 0.00039251481 0
0.00038212394 0 0.00039499326 0
0.00041208662 0 0.00039499961 0
0.00041458286 0 0.00039499854 0
0.00046452082 0 0.00039251593 0
0.00046455323 -7.0588849e-23 0.00039251838 0
0.00038210956 0 0.00039501186 0
0.00038214699 -7.0591526e-23 0.00039505424 0
0.00040958967 0 0.00039749916 0
0.00041208714 0 0.00039748343 0
0.0004945036 0 0.00039749989 0
0.00040958903 0 0.00039999858 0
0.0004920047 0 0.00039999815 0
0.00049200908 0 0.00039999821 0
9.9898949e-06 0 0.00040000632 0
9.4827125e-05 0 0.00040249983 0
3.9957757e-05 0 0.00040499982 0
4.7454491e-05 0 0.00040499945 0
9.4886013e-05 0 0.00040250028 0
2.9967855e-05 0 0.00040749986 0
2.9967654e-05 -2.4253202e-19 0.00040750023 0
2.9979045e-05 0 0.00040750167 0
0.00011736211 0 0.0004099788 0
0.00011740627 0 0.00040997657 0
1.2487522e-05 -1.5360037e-23 0.00041248502 0
3.9962473e-05 0 0.00041249386 0
9.2382982e-05 0 0.00041238796 0
9.2416614e-05 0 0.00041238916 1.5574024e-09
0.00011735158 0 0.00041004694 0
0.00011741749 0 0.0004100488 0
4.7452288e-05 0 0.00041250162 0
7.9923621e-05 8.8236596e-24 0.0004125101 0
9.2387389e-05 0 0.00041251908 0
9.2421173e-05 0 0.00041251329 2.3923855e-09
0.00010739253 0 0.00041749873 0
9.2407233e-05 0 0.00042238627 0
9.2407649e-05 0 0.00042239853 0
0.00010739265 0 0.00042002023 0
4.2459941e-05 0 0.00042250338 0
9.990096e-05 0 0.00042749977 0
7.2430102e-05 8.8235768e-24 0.00042750091 0
8.7414994e-05 0 0.00043250002 0
9.489724e-05 0 0.00043250006 0
9.7322861e-05 0 0.00043250016 0
9.7612811e-05 -1.7684513e-23 0.00043250005 0
9.9994051e-05 -1.7663112e-23 0.00043250002 0
0.00010250026 0 0.00043250002 0
0.00012486754 0 0.00043498759 0
6.2437511e-05 -8.8232614e-24 0.00043501103 0
0.00011488012 0 0.0004374946 0
0.00011489889 0 0.0004374919 0
0.0001248688 0 0.0004350074 0
3.49657e-05 0 0.00043750168 0
0.00011488165 0 0.00043750648 0
0.00011489284 -1.7647724e-23 0.00043750444 0
0.00011738343 -1.7646659e-23 0.00043750627 0
4.245744e-05 0 0.00044000208 0
7.4930508e-05 0 0.00044000148 0
1.498091e-05 0 0.00044250054 0
4.245748e-05 0 0.0004450027 0
4.4953238e-05 1.450857e-22 0.00044500305 0
4.495694e-05 2.9327592e-19 0.00044500189 0
4.9878745e-05 0 0.00044500004 0
6.493382e-05 0 0.00044749901 0
2.7475174e-05 4.4120593e-24 0.0004475004 0
3.4963276e-05 0 0.00044750017 0
3.4969537e-05 -4.4122023e-24 0.0004475044 0
6.493192e-05 0 0.00044999745 0
6.4936854e-05 0 0.00044999826 0
7.7422969e-05 0 0.0004499994 0
0.00011986379 0 0.00044998947 0
0.00011989662 0 0.00044998361 0
2.246961e-05 0 0.00045000018 0
6.4937271e-05 0 0.0004500042 0
6.7432926e-05 -8.8233156e-24 0.00045000619 0
7.7421789e-05 0 0.00045249234 0
7.7423093e-05 0 0.00045247474 0
0.00011987057 0 0.00045000683 0
0.00011989413 -1.7648599e-23 0.00045001228 0
1.248667e-05 0 0.00045250452 0
1.249051e-05 0 0.00045498004 0
0.00011238501 0 0.00045250045 0
0.00011239043 0 0.00045250127 0
3.2469542e-05 0 0.00045749962 0
0.00011738381 0 0.00045999995 0
7.4929504e-05 0 0.00046000241 0
0.00011738232 0 0.00046249953 0
0.00011987487 0 0.00046249871 0
0.00011988876 0 0.00046249523 0
6.2439223e-05 0 0.00046250236 0
9.2409986e-05 0 0.00046250648 0
0.00011988634 0 0.00046250291 0
0.00012237788 1.7646574e-23 0.00046251069 0
2.9976198e-05 0 0.00046500018 0
0.00010489543 0 0.00046749967 0
0.00010489548 0 0.00046750042 0
5.2448697e-05 -8.8234613e-24 0.00047000048 0
0.00010239569 0 0.00047000004 0
4.7453145e-05 -8.8233798e-24 0.00047500164 0
9.4904438e-05 0 0.000477501 0
0.00011487532 0 0.00047999488 0
0.0001148982 0 0.00047999759 0
0.00011987863 0 0.0004799999 0
0.00012236878 0 0.00047999528 0
0.00010489491 0 0.00048000067 0
0.00011487801 0 0.00048000513 0
0.00011492524 0 0.00048000112 0
0.0001198738 0 0.00048000047 0
0.00012236215 0 0.00048000248 0
0.00010239732 0 0.0004874994 0
0.00010239742 0 0.00048999884 0
9.9908173e-06 1.1029977e-24 0.00049000809 0
2.2477985e-05 0 0.0004900028 0
8.9911859e-05 -1.7646885e-23 0.00049250115 0
0.00010239743 0 0.0004949993 0
0.00010239736 0 0.00049749925 0
0.00010240385 0 0.00049749774 0
3.7464315e-05 5.0301328e-19 0.00049999981 0
8.7411617e-05 0 0.00049999993 0
0.00010239531 0 0.00049999738 0
0.00010241423 0 0.00049999812 0
0.00010739358 0 0.00049999994 0
0.00011238664 0 0.00049999994 0
0.00020480142 -3.5294146e-23 0.00040000101 0
0.00021228683 0 0.00040000007 0
0.00021229581 -3.529442e-23 0.00040000139 0
0.00014985057 1.7646587e-23 0.0004025002 0
0.00017233825 1.764762e-23 0.00040251075 0
0.00019480694 0 0.00040499972 0
0.000194826 0 0.00040500391 0
0.00021226762 0 0.00040748364 0
0.00021231555 0 0.00040747902 0
0.00023226728 0 0.00040749971 0
0.0002423478 0 0.00040748514 0
0.00024476271 0 0.00040749373 0
0.00021226275 0 0.00040753259 0