# interfaceEnergyFluxGas  FACE_DATA 51
# x  y  z  interfaceEnergyFluxGas
6.2670088e-05 0 1.2498506e-06 -9.6298245e-10
6.2612085e-05 0 3.7495684e-06 -9.4703006e-10
6.2364356e-05 0 6.778063e-06 -8.6033287e-10
6.2489754e-05 2.6036886e-22 5.5397682e-06 -3.3018988e-10
6.2112504e-05 -8.8482049e-24 8.748822e-06 -9.5539817e-10
6.1697656e-05 8.8564982e-24 1.124843e-05 -1.429315e-09
6.1187376e-05 8.8637701e-24 1.3748087e-05 -1.478032e-09
6.0574194e-05 8.872785e-24 1.6247661e-05 -1.3853032e-09
5.9694707e-05 0 1.9226373e-05 -4.6750709e-10
6.0088349e-05 0 1.7976068e-05 -1.1012456e-09
5.9001156e-05 8.890551e-24 2.1246822e-05 3.2085555e-11
5.8016826e-05 8.902386e-24 2.3746263e-05 2.7314648e-10
5.68964e-05 0 2.6321807e-05 -7.5170287e-10
5.7474799e-05 8.8282173e-24 2.5070817e-05 0
5.5693246e-05 -8.9253118e-24 2.8745181e-05 -9.0537968e-10
5.4272917e-05 0 3.1343927e-05 1.3010629e-10
5.4998536e-05 -8.8318457e-24 3.0094518e-05 -8.1102449e-10
5.2222723e-05 0 3.4656453e-05 5.5045741e-10
5.302231e-05 -8.9185725e-24 3.3404044e-05 -5.5509319e-12
5.1108936e-05 0 3.6242744e-05 5.7710683e-10
4.9094862e-05 0 3.8918585e-05 8.2046383e-10
5.0082168e-05 0 3.7671824e-05 0
4.6751117e-05 0 4.1706283e-05 7.8204158e-10
4.7841486e-05 8.8948075e-24 4.0455256e-05 6.772161e-10
4.4284534e-05 0 4.432174e-05 8.9907386e-10
4.5496996e-05 0 4.3068066e-05 1.2708081e-09
4.1675055e-05 0 4.6790858e-05 9.4258047e-10
4.3030109e-05 4.4700815e-24 4.5538671e-05 1.2049328e-09
3.889789e-05 0 4.9132846e-05 1.0249555e-09
4.0419304e-05 -4.4615751e-24 4.7888357e-05 5.921718e-10
3.462655e-05 0 5.2275689e-05 3.7895626e-10
3.6228103e-05 0 5.1147952e-05 7.2362764e-10
3.7637035e-05 -4.4320566e-24 5.0133559e-05 1.4507325e-09
3.1334066e-05 0 5.4318462e-05 1.226984e-10
3.3384381e-05 0 5.3069965e-05 2.1751804e-10
2.6323798e-05 0 5.6945175e-05 1.0602854e-09
2.8739348e-05 0 5.5740831e-05 -4.1529936e-11
3.0067602e-05 0 5.5055044e-05 -7.8298788e-10
1.9230828e-05 0 5.9753454e-05 6.5384737e-10
2.1253235e-05 0 5.9056553e-05 1.004551e-09
2.3748158e-05 0 5.8070318e-05 1.3967579e-09
2.5053655e-05 -4.4254657e-24 5.7535721e-05 1.6681853e-09
6.9638731e-06 0 6.2443681e-05 1.1154295e-09
8.8007143e-06 0 6.2196253e-05 1.0886797e-09
1.1285e-05 0 6.1768811e-05 7.416295e-10
1.3774091e-05 0 6.1250773e-05 2.8793738e-10
1.6265769e-05 0 6.0636114e-05 -4.919898e-10
1.7978022e-05 2.2660794e-24 6.0151289e-05 -1.6570249e-10
1.665e-06 0 6.2672457e-05 9.7370521e-11
3.885e-06 0 6.2694422e-05 9.6581241e-10
5.7580967e-06 3.3514396e-23 6.2566063e-05 1.9740037e-09
