# interfaceEnergyFluxLiquid  FACE_DATA 51
# x  y  z  interfaceEnergyFluxLiquid
6.2670088e-05 0 1.2498506e-06 76130.082
6.2612085e-05 0 3.7495684e-06 74972.528
6.2364356e-05 0 6.778063e-06 106318.89
6.2489754e-05 2.6036886e-22 5.5397682e-06 75595.16
6.2112504e-05 -8.8482049e-24 8.748822e-06 94112.88
6.1697656e-05 8.8564982e-24 1.124843e-05 83183.397
6.1187376e-05 8.8637701e-24 1.3748087e-05 75554.649
6.0574194e-05 8.872785e-24 1.6247661e-05 73101.466
5.9694707e-05 0 1.9226373e-05 99591.569
6.0088349e-05 0 1.7976068e-05 72355.313
5.9001156e-05 8.890551e-24 2.1246822e-05 78602.217
5.8016826e-05 8.902386e-24 2.3746263e-05 72739.206
5.68964e-05 0 2.6321807e-05 86557.583
5.7474799e-05 8.8282173e-24 2.5070817e-05 70963.038
5.5693246e-05 -8.9253118e-24 2.8745181e-05 73465.264
5.4272917e-05 0 3.1343927e-05 83545.724
5.4998536e-05 -8.8318457e-24 3.0094518e-05 70086.161
5.2222723e-05 0 3.4656453e-05 91631.444
5.302231e-05 -8.9185725e-24 3.3404044e-05 72494.443
5.1108936e-05 0 3.6242744e-05 76248.436
4.9094862e-05 0 3.8918585e-05 81560.944
5.0082168e-05 0 3.7671824e-05 70178.742
4.6751117e-05 0 4.1706283e-05 83094.365
4.7841486e-05 8.8948075e-24 4.0455256e-05 71151.312
4.4284534e-05 0 4.432174e-05 83252.494
4.5496996e-05 0 4.3068066e-05 71831.807
4.1675055e-05 0 4.6790858e-05 83208.372
4.3030109e-05 4.4700815e-24 4.5538671e-05 72202.039
3.889789e-05 0 4.9132846e-05 81814.759
4.0419304e-05 -4.4615751e-24 4.7888357e-05 72303.858
3.462655e-05 0 5.2275689e-05 91327.232
3.6228103e-05 0 5.1147952e-05 76578.404
3.7637035e-05 -4.4320566e-24 5.0133559e-05 71897.573
3.1334066e-05 0 5.4318462e-05 84071.744
3.3384381e-05 0 5.3069965e-05 75038.202
2.6323798e-05 0 5.6945175e-05 86242.209
2.8739348e-05 0 5.5740831e-05 75577.33
3.0067602e-05 0 5.5055044e-05 72628.017
1.9230828e-05 0 5.9753454e-05 96997.633
2.1253235e-05 0 5.9056553e-05 78219.458
2.3748158e-05 0 5.8070318e-05 77911.022
2.5053655e-05 -4.4254657e-24 5.7535721e-05 73933.98
6.9638731e-06 0 6.2443681e-05 97763.027
8.8007143e-06 0 6.2196253e-05 87683.193
1.1285e-05 0 6.1768811e-05 79146.394
1.3774091e-05 0 6.1250773e-05 73724.953
1.6265769e-05 0 6.0636114e-05 82769.513
1.7978022e-05 2.2660794e-24 6.0151289e-05 77097.701
1.665e-06 0 6.2672457e-05 78118.874
3.885e-06 0 6.2694422e-05 81813.829
5.7580967e-06 3.3514396e-23 6.2566063e-05 78753.766
