# interfaceEnergyFluxLiquid  FACE_DATA 1216
# x  y  z  interfaceEnergyFluxLiquid
1.2487453e-05 0 6.0004681e-05 0
2.5069155e-06 -6.7218573e-23 9.0021447e-05 0
3.6182443e-07 4.4116299e-24 9.2649164e-05 0
2.5787043e-06 4.6432215e-24 9.2588199e-05 0
0.00033704592 0 1.250012e-06 80805.525
0.00033706789 3.5293304e-23 3.7499969e-06 83968.36
0.00033702672 0 6.2499736e-06 82415.075
0.0003369795 0 8.749966e-06 80896.428
0.00033692122 0 1.1249957e-05 79500.074
0.0003368392 0 1.3749945e-05 77737.243
0.00033673927 0 1.624993e-05 75968.876
0.00033661304 0 1.8749911e-05 73927.577
0.00033645365 3.5301906e-23 2.1249895e-05 71538.213
0.00033627203 0 2.374989e-05 69395.847
0.00033609753 0 2.6249879e-05 68352.613
0.00033587782 0 2.8749853e-05 66830.782
0.00033561847 0 3.1249824e-05 65209.638
0.00033531361 0 3.3749801e-05 64111.526
0.00033498124 -3.5310907e-23 3.6249789e-05 63182.974
0.00033457301 0 3.9311522e-05 82030.978
0.00033473963 0 3.8058647e-05 63232.635
0.00033432059 0 4.1249791e-05 74666.741
0.00033396842 3.5310844e-23 4.374979e-05 69360.288
0.00033363915 0 4.6249794e-05 66896.211
0.00033330367 0 4.8749782e-05 65524.266
0.0003329341 3.5314347e-23 5.1249748e-05 64964.136
0.00033249642 3.5317451e-23 5.3749712e-05 63963.191
0.00033197456 0 5.650493e-05 79655.879
0.00033221664 3.1839649e-20 5.5253659e-05 63906.368
0.00033153325 3.5317745e-23 5.8749708e-05 69873.804
0.0003310817 -3.5315951e-23 6.124973e-05 66078.799
0.00033066422 -3.5316339e-23 6.3749725e-05 65539.6
0.00033019683 -3.5320444e-23 6.6249676e-05 65373.283
0.00032950773 0 6.9312813e-05 83963.776
0.0003298019 3.5307152e-23 6.8065441e-05 64531.919
0.00032902711 0 7.1249624e-05 71425.326
0.00032843948 -3.5324434e-23 7.3749629e-05 66130.592
0.00032785594 0 7.6249609e-05 65195.416
0.00032702571 0 7.9454195e-05 84366.172
0.00032736019 0 7.8206172e-05 63920.743
0.0003265197 -3.5330491e-23 8.1249558e-05 71655.488
0.00032581837 0 8.3749546e-05 65965.775
0.00032509675 -3.5332757e-23 8.6249531e-05 64270.491
0.00032432831 0 8.8861858e-05 77855.546
0.00032470835 3.5296664e-23 8.7610297e-05 64026.614
0.00032357667 0 9.1249494e-05 66906.551
0.00032277472 -3.5337011e-23 9.3749481e-05 64325.699
0.00032187287 0 9.6579371e-05 79252.444
0.00032228479 3.5304787e-23 9.5326595e-05 63311.019
0.00032112746 0 9.8749448e-05 66581.384
0.00037953566 0 8.2500725e-05 147431.04
0.00038087011 0 8.2511807e-05 116278.07
0.00038336761 0 8.2525967e-05 103575.1
0.0003858651 0 8.2532859e-05 96748.099
0.00038836259 0 8.2533204e-05 93001.227
0.00039086008 0 8.2530198e-05 90699.158
0.00039335757 0 8.2527179e-05 89148.774
0.00039585506 0 8.2525748e-05 88012.7
0.00039835255 0 8.2525692e-05 87107.058
0.00040085005 0 8.2526061e-05 86328.084
0.00040334754 0 8.2526183e-05 85620.859
0.00040584503 0 8.2525963e-05 84959.756
0.00040834252 0 8.2525615e-05 84333.793
0.00041084002 0 8.2525322e-05 83737.49
0.00041333751 0 8.2525119e-05 83167.076
0.000415835 0 8.2524957e-05 82619.815
0.00041833249 0 8.2524792e-05 82094.068
0.00042082999 0 8.2524619e-05 81589.014
0.00042332748 0 8.2524448e-05 81104.173
0.00042582497 0 8.2524287e-05 80639.081
0.00042832246 0 8.2524137e-05 80193.213
0.00043081996 0 8.2523993e-05 79766.03
0.00043331745 0 8.2523856e-05 79357.014
0.00043581494 0 8.2523724e-05 78965.66
0.00043831244 0 8.2523599e-05 78591.468
0.00044080993 0 8.2523479e-05 78233.934
0.00044330742 0 8.2523364e-05 77892.554
0.00044580492 0 8.2523255e-05 77566.821
0.00044830241 0 8.2523149e-05 77256.227
0.0004507999 0 8.2523047e-05 76960.263
0.0004532974 0 8.252295e-05 76678.419
0.00045579489 0 8.2522855e-05 76410.189
0.00045829238 0 8.2522765e-05 76155.073
0.00046078988 0 8.2522678e-05 75912.577
0.00046328737 0 8.2522595e-05 75682.215
0.00046578487 0 8.2522516e-05 75463.515
0.00046828236 0 8.252244e-05 75256.013
0.00047077985 0 8.2522368e-05 75059.269
0.00047327735 0 8.2522298e-05 74872.858
0.00047577484 0 8.2522231e-05 74696.381
0.00047827234 0 8.2522166e-05 74529.465
0.00048076983 0 8.2522104e-05 74371.762
0.00048326733 0 8.2522044e-05 74222.953
0.00048576482 0 8.2521987e-05 74082.763
0.00048826231 0 8.2521931e-05 73951.201
0.00049075981 0 8.252188e-05 73834.434
0.0004932573 0 8.2521833e-05 73863.51
0.0004957548 0 8.2521762e-05 73589.181
0.00049825229 0 8.2521821e-05 87085.381
2.4983934e-06 5.0565662e-21 0.00012504871 0
2.4978958e-06 0 0.00012984676 0
4.9950832e-06 0 0.00012997125 0
2.4984393e-06 0 0.00013244085 0
2.498566e-06 7.4363634e-24 0.00013253864 0
2.5016183e-06 0 0.00013502512 0
2.4972642e-06 0 0.00013997579 0
2.5021425e-06 0 0.00013996548 0
2.4806254e-06 4.9210631e-23 0.00014247063 0
2.5021432e-06 0 0.00014245636 0
2.5352865e-06 -5.1949779e-24 0.00014260188 0
2.503769e-06 -6.8418384e-24 0.00014743747 0
1.4985159e-05 0 0.00014750426 0
1.4985056e-05 0 0.00015249408 0
1.4984963e-05 1.0551782e-18 0.0001525042 0
1.4985033e-05 0 0.00015250461 0
1.4985115e-05 -4.9184906e-22 0.00015500468 0
6.743265e-05 0 0.00015500091 0
1.4985167e-05 0 0.00015999331 0
1.4985068e-05 -4.2361062e-23 0.0001624819 0
1.4985089e-05 0 0.00016498765 0
7.742296e-05 0 0.00016500096 0
2.7474703e-05 0 0.00017250101 0
7.4773901e-06 0 0.00017749988 0
2.9978791e-05 0 0.00018500307 0
4.4952102e-05 0 0.00018500019 0
4.7452565e-05 0 0.00019499876 0
3.746266e-05 0 0.00019500164 0
4.9948902e-05 0 0.00019500036 0
4.9950796e-05 0 0.00019500115 0
6.2437508e-05 0 0.00019750865 0
0.00032026087 0 0.00010124944 63419.711
0.00031932556 0 0.00010399937 75784.584
0.00031976646 0 0.00010274572 62603.815
0.00031849385 0 0.0001062494 65531.982
0.00031715488 0 0.00010992453 81161.462
0.00031761151 3.534069e-23 0.00010866648 63287.748
0.00031667659 -3.5344982e-23 0.00011124939 73569.2
0.00031569913 3.5346836e-23 0.00011374936 65067.674
0.00031447399 0 0.00011696468 80824.166
0.00031496311 0 0.00011570867 63072.155
0.00031374134 0 0.00011874933 68118.254
0.0003127177 3.5350584e-23 0.00012124932 64145.823
0.00031169225 0 0.00012380804 74855.642
0.00031220944 -3.529552e-23 0.00012255298 63046.547
0.00031063177 0 0.00012624929 65448.848
0.00030936529 0 0.00012925989 79689.259
0.00030990959 3.5318041e-23 0.00012800259 63137.3
0.0003084421 0 0.00013124924 66756.884
0.00030697604 0 0.00013453025 80132.697
0.00030754756 3.5333769e-23 0.0001332714 63585.502
0.00030614415 0 0.0001362492 67974.971
0.00030453645 0 0.00013967065 79901.3
0.00030513376 3.5343764e-23 0.00013841214 63932.474
0.00030374226 0 0.00014124916 68895.645
0.00030204411 0 0.00014469646 79587.017
0.00030267106 2.5378217e-20 0.00014343963 64138.164
0.00030122171 -3.536865e-23 0.00014624911 68615.47
0.00029948895 0 0.000149603 78646.467
0.00030014823 0 0.0001483462 63868.75
0.00029857019 3.5373131e-23 0.00015124905 67712.269
0.00029687056 0 0.00015440141 77499.448
0.00029755848 3.5335245e-23 0.00015314437 63142.001
0.00029580587 3.5377686e-23 0.000156249 66492.826
0.00029418632 0 0.00015910362 74917.349
0.00029490529 -3.5317004e-23 0.00015784802 62178.835
0.00029219827 0 0.00016248443 82007.539
0.00029293769 0 0.00016123544 65418.219
0.00029142849 -3.5383868e-23 0.00016374893 71065.448
0.00028943765 0 0.00016705812 76517.179
0.00029020073 3.5352686e-23 0.00016580162 63588.161
0.00030970199 0 0.00016502763 174509.19
0.00028836232 3.5389502e-23 0.00016874886 66786.884
0.00028659914 0 0.00017153288 73699.006
0.000287391 0 0.00017028082 61715.467
0.00028455181 0 0.00017474848 77448.208
0.00028535522 3.5372163e-23 0.00017349576 64492.497
0.00028354953 0 0.00017624878 68053.662
0.00028162456 0 0.00017912072 73732.793
0.0002824656 -3.532403e-23 0.00017786821 61922.296
0.00027952489 0 0.00018221631 76134.214
0.00028037809 0 0.00018096331 64253.121
0.00027844704 3.540402e-23 0.00018374869 67339.754
0.00027651079 0 0.00018649312 72219.192
0.00027739436 -3.5314901e-23 0.0001852427 61310.805
0.00027437238 0 0.0001895101 73651.052
0.00027526289 -3.536196e-23 0.00018825405 63022.603
0.00027220588 0 0.00019247068 80800.913
0.00027312343 3.5408686e-23 0.00019122246 65770.539
0.00027124968 -3.5414667e-23 0.00019374856 69230.326
0.00026907418 0 0.00019663509 72135.868
0.00027002041 0 0.00019538341 61434.433
0.00024975036 0 0.00019750013 0
0.00026686805 0 0.00019952777 71082.368
0.00026782488 0 0.00019827316 62577.335
3.4965006e-05 0 0.00020748549 0
7.7423442e-05 0 0.00021000128 0
6.4935104e-05 0 0.00022000214 0
6.4935147e-05 0 0.00022250164 0
0.00024865928 0 0.00022129045 69266.69
0.00024625985 0 0.00022392041 70995.695
0.00024740945 -3.5315423e-23 0.0002226718 61501.11
0.00024383791 0 0.00022652257 71909.839
0.00024500954 0 0.00022527305 61926.747
0.00024139204 0 0.00022909684 72426.971
0.00024258778 3.5341068e-23 0.0002278471 62247.359
0.00023892069 0 0.00023164266 72670.047
0.00024014187 0 0.00023039286 62471.24
0.00023642341 0 0.00023416091 72750.035
0.0002376706 -3.5353607e-23 0.00023291101 62583.976
0.00023389903 0 0.00023665233 72700.132
0.00023517328 0 0.00023540254 62586.034
0.00023134655 0 0.00023911761 72475.155
0.00023264885 0 0.00023786803 62481.946
0.00022876526 0 0.00024155723 71964.246
0.00023009602 0 0.00024030804 62281.906
0.00022615575 0 0.00024397246 71052.877
0.00022751475 0 0.00024272423 62022.632
0.00022226519 0 0.00024748909 83859.505
0.00022352858 0 0.00024635513 69685.111
0.00022490465 3.531338e-23 0.00024511795 61727.349
0.00021959682 0 0.00024984025 76878.596
0.00022101901 0 0.00024858664 68012.87
0.00021689474 0 0.00025216875 73491.774
0.00021834758 0 0.00025091574 66099.41
0.00021416057 0 0.00025447685 73291.749
0.00021564468 0 0.00025322473 64425.545
0.00021139502 0 0.00025676496 72839.741
0.00021290942 3.5396032e-23 0.00025551461 62967.299
0.00020860445 0 0.00025903691 70658.915
0.00021014391 3.5352444e-23 0.00025778833 62015.346
0.0002045309 0 0.0002622934 76111.119
0.00020604627 0 0.00026108926 67578.425
0.00020735349 -3.5303419e-23 0.00026004911 61331.26
0.00020166382 0 0.00026451266 73755.933
0.00020328141 3.546359e-23 0.00026326056 64893.299
0.00019876705 0 0.00026671485 72208.146
0.0002004114 0 0.00026546512 62726.48
0.00019459268 0 0.00026984457 77572.153
0.0001960564 0 0.00026875348 68151.813
0.00019751594 0 0.00026766108 61583.429
0.00019161234 0 0.00027199987 74219.24
0.00019334402 0 0.00027074919 64986.23
0.00018860502 0 0.00027414136 70988.405
0.00019035934 0 0.00027289139 62427.202
0.0001843034 0 0.00027715108 75251.201
0.00018606654 0 0.00027592866 66342.777
0.00018735471 0 0.00027502984 61300.714
0.00018119319 0 0.00027924174 72052.893
0.00018304984 0 0.00027799368 63196.859
0.00017680403 0 0.00028216433 75976.84
0.00017857416 0 0.00028099482 66416.291
0.00017994298 3.5317154e-23 0.0002800825 61322.576
0.00017358532 0 0.00028420897 71206.946
0.00017554977 0 0.00028296312 63162.169
0.00016907925 0 0.00028704022 75579.27
0.00017108179 0 0.00028579667 65687.212
0.00017233817 1.7647612e-23 0.00028500677 61168.739
0.00016450645 0 0.00028980602 77956.124
0.00016608688 0 0.0002888376 67539.646
0.00016782353 1.7698101e-23 0.00028779816 62305.858
0.00016109198 0 0.00029177472 71544.913
0.00016325464 -1.7745471e-23 0.00029053414 63796.609
0.00015636792 0 0.00029445977 74666.228
0.00015859453 0 0.00029320826 65023.818
0.00015984194 0 0.00029250111 61573.114
0.00015155226 0 0.00029707838 76877.242
0.00015359963 0 0.00029595856 65548.394
0.000155114 1.7677104e-23 0.00029514769 61794.762
0.00014662909 0 0.00029963379 77466.974
0.00014860475 0 0.00029859048 65698.222
0.00015029628 1.7698866e-23 0.00029773424 62210.359
0.0002646393 0 0.00020237851 73210.5
0.00026561904 -3.5410374e-23 0.0002011283 63803.911
0.00026354444 0 0.00020374842 65452.852
0.00026137335 0 0.00020643678 67802.983
0.00026238947 0 0.00020518743 59957.041
0.00025909482 0 0.00020921854 69189.873
0.00026012386 3.5345096e-23 0.00020796724 60291.246
0.00025679839 0 0.00021197257 68856.694
0.000257845 3.5375444e-23 0.00021072012 61191.202
0.00025448187 0 0.00021469402 69309.255
0.00025554859 0 0.00021344108 62211.11
0.00025214505 0 0.00021738281 74329.416
0.0002532327 0 0.00021613087 64050.726
0.00025093478 0 0.00021874816 66652.519
0.00024978765 -3.5298358e-23 0.00022004192 60883.301
0.00039711467 7.0588243e-23 0.00023262747 198241.44
0.00039461669 0 0.0002375087 165260.57
0.00049639123 0 0.00027750089 145658.93
0.00049825229 0 0.00027750359 150462.8
0.0001243882 -1.7438795e-20 0.00030980004 77016.719
0.0001187789 0 0.00031206386 73742.553
0.00012113304 0 0.0003110956 63647.518
0.00012313338 -5.5792236e-22 0.00031030745 61507.542
0.00011171657 0 0.00031475312 78438.548
0.00011364082 0 0.00031401975 65885.515
0.00011613823 0 0.00031306239 62566.81
0.00011752226 0 0.00031255462 61590.209
0.00010445597 0 0.00031734916 79868.486
0.00010614865 0 0.00031675121 67961.717
0.00010864603 0 0.00031584053 62849.607
0.00011046258 0 0.00031520779 61449.559
9.6974869e-05 0 0.00031986253 80701.146
9.8656519e-05 0 0.00031930387 68749.843
0.00010115389 0 0.00031845144 63150.085
0.00010320493 1.7784223e-23 0.00031777371 61723.699
8.9233098e-05 0 0.00032229441 80509.516
9.1164452e-05 0 0.00032168337 67484.016
9.36618e-05 0 0.00032089549 63228.26
9.5725765e-05 0 0.00032025968 61967.771
7.9829902e-05 0 0.00032497635 82929.806
8.1175154e-05 0 0.00032460785 74336.622
8.3672463e-05 0 0.00032389231 65246.576
8.6169783e-05 0 0.00032318499 63239.69
8.798419e-05 0 0.00032266994 62220.32
6.9868158e-05 0 0.0003274861 84456.123
7.1186053e-05 0 0.0003271653 75498.572
7.3683305e-05 0 0.00032652291 65985.39
7.6180574e-05 0 0.00032591053 63481.302
7.8590571e-05 -8.9537638e-24 0.00032529988 62818.366
5.8791362e-05 0 0.00032976285 76245.093
6.1197245e-05 0 0.0003292501 66917.803
6.3694412e-05 0 0.00032874283 63335.106
6.6191604e-05 0 0.00032827427 63133.391
6.863886e-05 0 0.00032776139 63185.834
4.2207436e-05 0 0.00033246311 79978.939
4.3718143e-05 0 0.0003322315 72545.151
4.6215e-05 0 0.00033180636 65162.893
4.8711923e-05 0 0.00033140664 62027.882
5.1208902e-05 0 0.00033104247 61301.03
5.370593e-05 0 0.00033067758 61902.596
5.6203e-05 0 0.00033025435 62313.834
5.7534484e-05 8.8373587e-24 0.00033001842 62595.373
1.665e-06 0 0.00033473061 51675.058
3.4128422e-06 0 0.00033496877 64752.945
6.327e-06 0 0.00033495242 66763.675
8.8007143e-06 0 0.00033488271 65953.027
1.1285e-05 0 0.00033481476 65490.968
1.3774091e-05 0 0.00033475524 65806.193
1.6265769e-05 0 0.00033468167 65907.427
1.8759e-05 0 0.00033459046 65719.393
2.1253235e-05 0 0.00033447653 65157.266
2.3748158e-05 0 0.00033431501 63558.309
2.6243571e-05 0 0.00033412237 61802.682
2.8739348e-05 0 0.0003339305 60887.238
3.12354e-05 0 0.00033372023 60251.109
3.3731667e-05 0 0.00033350018 60072.111
3.6228103e-05 0 0.00033325302 60678.181
3.8724677e-05 0 0.00033295544 61158.211
4.0970451e-05 4.5195749e-24 0.00033264417 60935.145
4.5319712e-06 0 0.00033501742 57409.323
5.0100338e-06 -5.5310687e-25 0.0003350003 57671.074
8.2425523e-05 -8.8241187e-24 0.0003375028 166680.19
4.7456025e-05 8.8239152e-24 0.00034250898 150189.06
0.00011239115 -1.7647093e-23 0.00035000019 187193.92
0.00011489038 1.7647346e-23 0.00035000074 180862.22
0.00011984843 0 0.00035000091 188543.6
0.00012233972 0 0.00035000075 189523.57
0.00012471252 0 0.00035000008 186805.7
0.00011238631 0 0.00035500731 177760.2
3.2469388e-05 -4.4118865e-24 0.00036250214 181584.92
3.2470377e-05 -4.4120209e-24 0.00037000158 185705.41
0.00010739305 0 0.00037249981 178488.79
2.2482395e-05 0 0.00037499995 216707.85
9.9906214e-06 0 0.000377506 219430.31
1.9986013e-05 -2.2064785e-24 0.00037750028 217582.72
7.4929782e-05 0 0.00038500395 169660.47
3.2468317e-05 -4.4117409e-24 0.00039500334 199570.51
4.4958079e-05 0 0.00039750013 207376.3
6.7431835e-05 0 0.0003999992 170790.33
6.7446414e-05 0 0.00039999491 182112
0.00014158793 0 0.00030212799 73312.658
0.00014360987 0 0.00030110589 64662.61
0.00014537204 0 0.00030025914 62157.142
0.00013642017 0 0.00030456486 71066.36
0.000138615 0 0.00030350952 62475.844
0.00014033014 1.7705574e-23 0.0003027251 61204.787
0.00012983714 0 0.00030748597 76448.939
0.00013112271 0 0.00030693837 68784.603
0.00013362014 0 0.00030580532 61849.581
0.00013516278 -1.7685369e-23 0.00030513607 60374.933
0.00012612787 0 0.00030905975 65151.88
0.00012858558 -1.6863823e-20 0.00030801484 61659.595
0.00013986677 1.7647374e-23 0.00033000336 173400.2
0.00013487136 0 0.00033250317 172895.34
0.00012987295 0 0.00033750622 173024.2
0.00012497726 0 0.00035000013 189656.69
0.00015484368 0 0.00036749851 159045.12
0.00012488466 0 0.00039000018 204603.81
0.00031843288 0 0.0003325019 144982.3
0.00032093037 0 0.00033250441 135352.51
0.00032342786 0 0.00033250485 131390.92
0.00032592534 0 0.00033250468 130243.12
0.00032842283 0 0.00033250457 129803.58
0.00033092032 0 0.00033250457 129585.44
0.00033341781 0 0.00033250459 129400.19
0.0003359153 0 0.00033250459 129178.36
0.00033841279 0 0.00033250458 128970.12
0.00034091027 0 0.00033250457 128781.66
0.00034340776 0 0.00033250456 128611.02
0.00034590525 0 0.00033250455 128455.7
0.00034840274 0 0.00033250455 128311.43
0.00035090023 0 0.00033250454 128172.71
0.00035339772 0 0.00033250453 128034.26
0.00035589521 0 0.00033250452 127892.65
0.0003583927 0 0.00033250452 127747.22
0.00036089019 0 0.00033250451 127600.26
0.00036338768 0 0.0003325045 127456.03
0.00036588517 0 0.00033250449 127319.11
0.00036838266 0 0.00033250448 127192.76
0.00037088015 0 0.00033250448 127077.85
0.00037337764 0 0.00033250446 126972.22
0.00036729678 0 0.00036007203 163538.64
0.00035589521 0 0.00038250046 175657.98
0.0003583927 0 0.00038250038 174776.03
0.00036089019 0 0.0003825002 174978.26
0.00036338768 0 0.00038250011 175973.36
0.00036527164 0 0.00038250013 182215.3
0.00036939292 0 0.00038250009 194621.1
0.00037200667 0 0.00038250016 200062.48
0.00037223138 0 0.00038250079 200495.42
0.00027472441 0 0.0003899992 156835.81
0.00028470591 0 0.00038999084 156196.85
0.0002847335 0 0.00038998149 156136.85
0.00029220721 0 0.00038999974 155289.36
0.00029222305 0 0.00038999599 177517.01
0.00030219723 0 0.00038999972 154650.68
0.00030220973 0 0.00038998964 155163.74
0.00030969314 0 0.00038999676 154932.95
0.00034215724 0 0.00038999974 156533.95
0.00034464335 0 0.00038999958 201543.95
0.00034465655 0 0.00038999805 157380.2
0.0002747107 0 0.00039241794 185664.9
0.00027472846 0 0.00039239388 198129.08
0.00028470203 0 0.00039001351 157744.34
0.00028473432 0 0.00039002299 157975.23
0.00029220172 0 0.00039000831 158187.54
0.00029224563 0 0.00039002727 158906.17
0.00030219 0 0.00039001146 157010.56
0.00030222319 0 0.00039004011 155705.97
0.00030968631 0 0.00039001052 170144.28
0.0003097122 3.5295569e-23 0.00039006916 171793.49
0.00032216423 0 0.00039249139 157410.72
0.00032218281 0 0.00039249481 156556.14
0.00033215811 0 0.00039249062 157105.46
0.00033220407 0 0.00039248271 166216.11
0.00034215669 0 0.00039000515 190168.58
0.0003446249 0 0.00039002994 158205.13
0.00034465569 -4.9424005e-17 0.00039019111 198298.53
0.00027471327 0 0.00039251119 157561.25
0.00027473206 3.5293946e-23 0.00039250682 157678.16
0.00032214835 0 0.00039253704 157446.24
0.00032218531 0 0.00039251872 167539.36
0.00033215778 0 0.00039250978 157459.56
0.0003321992 0 0.00039251295 170937.96
0.00034464914 0 0.00039250123 187127.37
0.00034465789 3.5293335e-23 0.00039250345 159224.23
0.00035214592 0 0.00039499775 159503.62
0.00035459634 0 0.0003949901 186455.22
0.00035214303 0 0.00039500523 160229.36
0.00035460071 0 0.00039500935 187031.05
0.00037587513 0 0.00033250446 126871.48
0.00037837262 0 0.00033250446 126769.37
0.00038087011 0 0.00033250445 126660.38
0.00038336761 0 0.00033250444 126541.19
0.0003858651 0 0.00033250443 126411.64
0.00038836259 0 0.00033250442 126274.83
0.00039086008 0 0.00033250441 126136.42
0.00039335757 0 0.0003325044 126003.25
0.00039585506 0 0.0003325044 125881.8
0.00039835255 0 0.00033250439 125777.06
0.00040085005 0 0.00033250438 125691.7
0.00040334754 0 0.00033250438 125625.63
0.00040584503 0 0.00033250437 125576.29
0.00040834252 0 0.00033250437 125539.62
0.00041084002 0 0.00033250437 125511.43
0.00041333751 0 0.00033250436 125488.17
0.000415835 0 0.00033250436 125467.02
0.00041833249 0 0.00033250435 125445.72
0.00042082999 0 0.00033250435 125422.54
0.00042332748 0 0.00033250435 125396.53
0.00042582497 0 0.00033250434 125367.1
0.00042832246 0 0.00033250434 125332.68
0.00043081996 0 0.00033250433 125287.98
0.00043331745 0 0.00033250432 125220.05
0.00043581494 0 0.00033250432 125103.08
0.00043831244 0 0.00033250431 124895.09
0.00044080993 0 0.00033250429 124543.33
0.00044330742 0 0.00033250427 124008.3
0.00044580492 0 0.00033250424 123301.4
0.00044830241 0 0.00033250421 122506.85
0.0004507999 0 0.00033250417 121756.03
0.0004532974 0 0.00033250415 121165.39
0.00045579489 0 0.00033250413 120785.98
0.00045829238 0 0.00033250412 120599.27
0.00046078988 0 0.00033250412 120548.52
0.00046328737 0 0.00033250412 120574.14
0.00046578487 0 0.00033250411 120632.6
0.00046828236 0 0.00033250411 120697.9
0.00047077985 0 0.00033250411 120753.77
0.00047327735 0 0.0003325041 120785.08
0.00047577484 0 0.0003325041 120773.88
0.00047827234 0 0.00033250409 120701.09
0.00048076983 0 0.00033250408 120550.3
0.00048326733 0 0.00033250407 120310.35
0.00048576482 0 0.00033250405 119974.29
0.00048826231 0 0.00033250403 119538.54
0.00049075981 0 0.00033250401 119016.81
0.0004932573 0 0.00033250398 118521.45
0.0004957548 0 0.0003325039 117408.38
0.00049825229 0 0.00033250416 135795.19
0.00048700057 0 0.00036248693 149525.86
0.00048701936 0 0.0003624938 147919.45
0.00049445027 0 0.00036244539 149702.22
0.00049454131 0 0.00036246431 148543.97
0.00048697468 0 0.00036272789 184003.72
0.00048702247 0 0.00036255153 185018.66
0.00049443931 0 0.00036258913 163465.79
0.00049455122 0 0.00036255191 161562.96
0.00044962229 0 0.00036745616 163209.57
0.00045708584 0 0.00036748441 174707.7
0.00046700786 0 0.00036747512 160804.04
0.00046712736 0 0.00036746385 173615.11
0.00047712458 0 0.00036746175 173576.73
0.00047952177 0 0.00036749797 160165.9
0.00044954881 0 0.00036750085 162646.23
0.00044966746 0 0.00036755405 172423.22
0.00045701679 -2.9441319e-18 0.00036751121 172716.74
0.00045717098 0 0.00036756709 168466.71
0.000467005 0 0.00036752777 162636.19
0.00046713573 7.0601676e-23 0.00036754544 173034.39
0.00047714605 -7.0604354e-23 0.00036754519 176428.43
0.00047952282 -7.0586494e-23 0.00036750347 162180.01
0.00038461998 7.0586993e-23 0.00037001093 168842
0.00039335757 0 0.00037000722 177081.88
0.00039552141 7.0749499e-23 0.00037000125 178215.92
0.00039770449 0 0.00037000021 184100.31
0.00040002204 0 0.00037000011 190122.69
0.00040454071 0 0.00037000006 205629.69
0.0004071771 -7.0600743e-23 0.00037000033 204017.79
0.00040960865 -7.0589293e-23 0.00037000016 207048.41
0.00043200922 0 0.00037244055 163428.12
0.00043211207 0 0.00037245312 163204.29
0.00043202156 0 0.00037254381 162427.78
0.00043211238 0 0.00037254415 162648.95
0.000444527 0 0.00037497656 162695.82
0.00044462624 0 0.00037496544 170716.6
0.00041712019 0 0.00037748445 171830.25
0.00044451917 0 0.00037504053 162503.08
0.00044463678 0 0.00037506185 164632.51
0.00040955736 0 0.00037996692 160546.83
0.00040963981 0 0.00037994394 161754.72
0.00041706657 0 0.00037751893 160543.61
0.00041720668 7.0607086e-23 0.00037757304 165109.53
0.00037963298 -7.0588493e-23 0.00038001927 159499.7
0.0004095495 0 0.00038004432 160905.55
0.00040964801 0 0.00038007523 162783.43
0.00037463733 -7.0588403e-23 0.00038250042 202692.82
0.00041457114 0 0.00039000323 187775.38
0.00041705251 0 0.00039000149 205495.17
0.00041711236 0 0.00039000059 208837.95
0.00048959487 7.0598314e-23 0.0003900003 206595.82
0.00039710201 0 0.00039499944 161283.11
0.00039713478 0 0.00039499411 191544.16
0.00040709234 0 0.00039250621 209235.11
0.0004070954 -7.0586581e-23 0.00039254112 202662.51
0.00042707501 0 0.00039494987 204620.83
0.00038211391 0 0.00039749644 160731.54
0.00038212097 0 0.0003974967 161021.11
0.00039710144 0 0.00039500104 161404.86
0.00039959058 0 0.00039500039 207634.54
0.000427073 0 0.00039500658 203981.8
0.00038211085 0 0.00039756058 196858.86
0.00038211937 0 0.00039994479 204209.39
0.00038961043 -7.0586156e-23 0.00039750126 178449.03
0.00042707405 -7.0586335e-23 0.00039750267 166295
5.9940967e-05 0 0.00040249985 196407.79
6.2436753e-05 0 0.00040250059 171647.49
2.9969512e-05 0 0.00040500207 202551.6
6.9932517e-05 8.8235774e-24 0.0004050129 192786.7
7.9926623e-05 -8.823991e-24 0.00040501296 173848.49
4.9955883e-05 0 0.00041250127 195169.57
2.2478982e-05 4.4119208e-24 0.00041500322 198947.75
3.9963753e-05 0 0.00041500271 181674.64
5.7442884e-05 0 0.0004200012 187755.37
6.9932506e-05 0 0.00042000045 194662.12
5.7438279e-05 0 0.0004225014 187023.8
2.9969709e-05 0 0.00042749617 212960.8
2.9970977e-05 0 0.0004274974 197305.85
2.9969965e-05 0 0.00042999771 216863.66
2.997003e-05 0 0.00042999274 217741.8
3.2467517e-05 0 0.00042999725 216445.48
0.00012487239 -1.7646889e-23 0.00042750156 164590.53
2.9969903e-05 0 0.00043249611 216354.52
2.9970651e-05 4.4117258e-24 0.00043000204 199992.44
6.9932846e-05 -8.823619e-24 0.00043000018 203992.5
5.4947614e-05 8.8236796e-24 0.00043500683 184660.44
1.7481937e-05 0 0.00043750631 222405.19
1.7483107e-05 -2.2058915e-24 0.00043750375 217342.49
1.9980231e-05 0 0.00043999404 222776.84
2.7475287e-05 0 0.00043999983 216399.36
2.9972029e-05 0 0.00043999653 190606.64
0.00011988295 0 0.00043750111 177282.99
2.746904e-05 0 0.00044000232 192876.75
2.9968069e-05 0 0.00044000039 206547.55
9.9900141e-05 1.7646545e-23 0.00044261012 204605.13
9.9900031e-05 0 0.00044746717 207275.38
9.9900041e-05 1.7646527e-23 0.00044757981 205351.48
9.9900063e-05 1.7646531e-23 0.00045012512 203411.47
1.7483261e-05 0 0.00045499562 218459.17
9.9900058e-05 0 0.00045471888 198221.2
0.00010739258 0 0.00045253769 205576.13
9.9900042e-05 0 0.00045561673 191210.35
9.9900065e-05 0 0.00045781236 197622.23
1.9981106e-05 0 0.00046249646 210134.55
5.7442829e-05 8.8233104e-24 0.0004600039 202775.18
9.9900016e-05 0 0.00046001222 208296.13
1.997573e-05 0 0.00046250004 227181.7
3.2467514e-05 0 0.00046500296 218307.12
6.7433903e-05 8.8234435e-24 0.00046500104 170772.85
9.9900245e-05 0 0.00046502169 207660.37
3.2467596e-05 -4.4116429e-24 0.00046750603 217634.18
9.9900706e-05 -1.7646644e-23 0.00046751044 202667.2
3.2467524e-05 0 0.00047249419 218585.31
3.2467599e-05 0 0.00047749729 216677.28
3.496622e-05 0 0.00048249818 187066.13
7.243513e-05 0 0.00048000084 199401.29
0.00010239756 -1.7646529e-23 0.00048502934 208100
3.496591e-05 0 0.0004899986 187337.66
8.7413457e-05 -1.7646713e-23 0.00048750065 167836.76
4.2457921e-05 -4.4116737e-24 0.00049250236 201868.26
6.4937768e-05 -8.8236359e-24 0.00049250642 178927.49
2.7474481e-05 0 0.00049749922 201512.81
0.00012237756 0 0.00049999919 271754.84
0.00014484787 0 0.00040249259 161936.37
0.00014486415 0 0.0004024908 161459.17
0.00014484347 0 0.00040253553 179327.14
0.00014486918 0 0.00040253711 175020
0.0001998348 -3.4802465e-19 0.0004025275 157158.76
0.00019230582 0 0.00041499834 157330.94
0.00019231034 0 0.00041499736 156088.76
0.00017979424 0 0.00041748807 168282.98
0.00017983637 0 0.00041748399 159079.96
0.00019229394 0 0.00041745437 178221.62
0.00019231865 0 0.00041746669 173908.66
0.00020479587 0 0.00041500016 188718.18
0.00024726611 3.5294983e-23 0.00041500408 180176.83
0.00014985102 0 0.00041750039 174163.4
0.00017732221 0 0.00041750027 159805.21
0.00017979214 0 0.00041751496 166670.51
0.00017983541 0 0.00041751561 160322.97
0.00013486382 0 0.00042000132 160971.65
0.00023975955 0 0.00042249952 160799.55
0.00024725231 0 0.00042249981 160106.6
0.00024725586 0 0.00042249746 161366.23
0.00020479471 0 0.00042499965 159543.35
0.00023975096 0 0.00042493804 193880.76
0.00023976362 0 0.00042498144 190550.52
0.00024725192 0 0.00042253966 207817.62
0.00024726732 0 0.00042254921 181234.98
0.00020479414 0 0.00042749872 159921.39
0.00020481213 0 0.000427491 166160.02
0.00022975964 0 0.00042748887 161342.27
0.00022978677 0 0.00042748485 161814.48
0.00013985677 0 0.00042999725 160859.96
0.00014223913 0 0.00042999101 195255.07
0.00020479237 0 0.00042750253 159186.38
0.00020481071 1.7647874e-22 0.00042750104 201674.62
0.00022975983 0 0.00042751039 162093.06
0.00022978389 0 0.00042751186 162765.86
0.00014231352 0 0.0004300064 192680.21
0.00012987004 0 0.00043502051 207585.19
0.00016731022 0 0.00043747949 159307.04
0.00016734644 0 0.00043748579 158449.34
0.00019228981 0 0.00043748313 157226.51
0.00019232013 0 0.00043748728 157052.87
0.00016731449 0 0.00043751553 160228.09
0.00016734601 0 0.00043751306 159436.35
0.00019229219 0 0.00043751406 158180.85
0.00019232008 0 0.00043751224 158149.61
0.00024725219 0 0.00044005982 207109.77
0.00024725285 0 0.00044016173 203468.71
0.00020729215 0 0.0004449998 164047.05
0.00020977585 0 0.00044499768 191561.6
0.00020975456 0 0.0004450049 193503.37
0.00015485437 0 0.0004500035 175208.7
0.00018981275 -3.5293552e-23 0.00045000037 195865.89
0.00020479171 0 0.00045249673 159452.76
0.00020727494 0 0.00045249627 186794.39
0.00020733654 0 0.00045249664 199562.64
0.00020979845 0 0.00045249233 160396.08
0.00021728064 0 0.00045246876 201920.83
0.00021728693 0 0.00045004087 197764.27
0.00021978145 -3.5293272e-23 0.00045003667 205404
0.00022475475 0 0.00045000166 201003.31
0.00022726572 0 0.00045000678 161025.44
0.00022970479 0 0.00045000096 206530.14
0.00022979416 -3.5296751e-23 0.00045000089 206628.73
0.00023473223 0 0.00045000051 208481.2
0.00023478873 0 0.0004500006 208257.91
0.00023726761 0 0.0004500008 195240.56
0.00024726204 3.5294402e-23 0.00045000516 167195.76
0.00020479162 0 0.00045251307 183928.81
0.00020728192 0 0.00045250476 171125.69
0.00020730365 0 0.00045250463 173213.54
0.00020979311 0 0.00045250342 160576.33
0.00013736217 0 0.00045512287 203099.58
0.00013736316 1.7646604e-23 0.00045537463 194432.97
0.00024475229 0 0.00045749751 161732.31
0.00024476493 0 0.00045749891 199895.52
0.00024475136 0 0.00045997953 193362.19
0.00024476726 0 0.00045992678 192053.6
0.00024725279 0 0.00045999402 205979.91
0.00017482248 0 0.00046249728 159825.83
0.00017492044 0 0.00046249362 198523.33
0.00024475258 0 0.00046000426 167004.47
0.0001573478 -1.7647114e-23 0.00046250728 161323.63
0.00016483374 0 0.0004625034 174834.09
0.00016733128 0 0.000462514 198623.26
0.00016733741 0 0.00046254578 195493.86