# interfaceEnergyFluxGas  FACE_DATA 1216
# x  y  z  interfaceEnergyFluxGas
1.2487453e-05 0 6.0004681e-05 1.7112836e-08
2.5069155e-06 -6.7218573e-23 9.0021447e-05 9.8383381e-09
3.6182443e-07 4.4116299e-24 9.2649164e-05 9.8333325e-09
2.5787043e-06 4.6432215e-24 9.2588199e-05 9.6251524e-09
0.00033704592 0 1.250012e-06 -1.1400524e-09
0.00033706789 3.5293304e-23 3.7499969e-06 -7.0309887e-10
0.00033702672 0 6.2499736e-06 -4.2490993e-10
0.0003369795 0 8.749966e-06 -6.1817749e-10
0.00033692122 0 1.1249957e-05 -8.2889149e-10
0.0003368392 0 1.3749945e-05 -8.4126537e-10
0.00033673927 0 1.624993e-05 -9.8197104e-10
0.00033661304 0 1.8749911e-05 -1.1424782e-09
0.00033645365 3.5301906e-23 2.1249895e-05 -1.058571e-09
0.00033627203 0 2.374989e-05 -9.9380101e-10
0.00033609753 0 2.6249879e-05 -9.0537338e-10
0.00033587782 0 2.8749853e-05 -2.4497818e-10
0.00033561847 0 3.1249824e-05 5.7728632e-11
0.00033531361 0 3.3749801e-05 5.7577664e-10
0.00033498124 -3.5310907e-23 3.6249789e-05 1.0863554e-10
0.00033457301 0 3.9311522e-05 -7.6009445e-10
0.00033473963 0 3.8058647e-05 -1.0285404e-11
0.00033432059 0 4.1249791e-05 -7.4504838e-10
0.00033396842 3.5310844e-23 4.374979e-05 -6.0204238e-10
0.00033363915 0 4.6249794e-05 -3.9071998e-10
0.00033330367 0 4.8749782e-05 1.4989853e-10
0.0003329341 3.5314347e-23 5.1249748e-05 -9.7655616e-10
0.00033249642 3.5317451e-23 5.3749712e-05 -1.7498798e-09
0.00033197456 0 5.650493e-05 -6.3317384e-10
0.00033221664 3.1839649e-20 5.5253659e-05 -1.6513821e-09
0.00033153325 3.5317745e-23 5.8749708e-05 -8.285743e-10
0.0003310817 -3.5315951e-23 6.124973e-05 -1.4380758e-09
0.00033066422 -3.5316339e-23 6.3749725e-05 -1.8266414e-09
0.00033019683 -3.5320444e-23 6.6249676e-05 -1.6871068e-09
0.00032950773 0 6.9312813e-05 -1.0057342e-09
0.0003298019 3.5307152e-23 6.8065441e-05 -1.4071404e-09
0.00032902711 0 7.1249624e-05 -1.1511385e-09
0.00032843948 -3.5324434e-23 7.3749629e-05 -1.2277347e-09
0.00032785594 0 7.6249609e-05 -9.0231992e-10
0.00032702571 0 7.9454195e-05 -1.6178257e-10
0.00032736019 0 7.8206172e-05 -1.5808575e-09
0.0003265197 -3.5330491e-23 8.1249558e-05 -7.1592326e-11
0.00032581837 0 8.3749546e-05 5.7489093e-11
0.00032509675 -3.5332757e-23 8.6249531e-05 1.2633449e-09
0.00032432831 0 8.8861858e-05 -3.5298498e-11
0.00032470835 3.5296664e-23 8.7610297e-05 1.7354176e-09
0.00032357667 0 9.1249494e-05 -1.2646286e-11
0.00032277472 -3.5337011e-23 9.3749481e-05 -5.1353203e-10
0.00032187287 0 9.6579371e-05 -6.6509221e-10
0.00032228479 3.5304787e-23 9.5326595e-05 -3.4491358e-10
0.00032112746 0 9.8749448e-05 -9.9929528e-10
0.00037953566 0 8.2500725e-05 0
0.00038087011 0 8.2511807e-05 0
0.00038336761 0 8.2525967e-05 0
0.0003858651 0 8.2532859e-05 0
0.00038836259 0 8.2533204e-05 0
0.00039086008 0 8.2530198e-05 0
0.00039335757 0 8.2527179e-05 0
0.00039585506 0 8.2525748e-05 0
0.00039835255 0 8.2525692e-05 0
0.00040085005 0 8.2526061e-05 0
0.00040334754 0 8.2526183e-05 0
0.00040584503 0 8.2525963e-05 0
0.00040834252 0 8.2525615e-05 0
0.00041084002 0 8.2525322e-05 0
0.00041333751 0 8.2525119e-05 0
0.000415835 0 8.2524957e-05 0
0.00041833249 0 8.2524792e-05 0
0.00042082999 0 8.2524619e-05 0
0.00042332748 0 8.2524448e-05 0
0.00042582497 0 8.2524287e-05 0
0.00042832246 0 8.2524137e-05 0
0.00043081996 0 8.2523993e-05 0
0.00043331745 0 8.2523856e-05 0
0.00043581494 0 8.2523724e-05 0
0.00043831244 0 8.2523599e-05 0
0.00044080993 0 8.2523479e-05 0
0.00044330742 0 8.2523364e-05 0
0.00044580492 0 8.2523255e-05 0
0.00044830241 0 8.2523149e-05 0
0.0004507999 0 8.2523047e-05 0
0.0004532974 0 8.252295e-05 0
0.00045579489 0 8.2522855e-05 0
0.00045829238 0 8.2522765e-05 0
0.00046078988 0 8.2522678e-05 0
0.00046328737 0 8.2522595e-05 0
0.00046578487 0 8.2522516e-05 0
0.00046828236 0 8.252244e-05 0
0.00047077985 0 8.2522368e-05 0
0.00047327735 0 8.2522298e-05 0
0.00047577484 0 8.2522231e-05 0
0.00047827234 0 8.2522166e-05 0
0.00048076983 0 8.2522104e-05 0
0.00048326733 0 8.2522044e-05 0
0.00048576482 0 8.2521987e-05 0
0.00048826231 0 8.2521931e-05 0
0.00049075981 0 8.252188e-05 0
0.0004932573 0 8.2521833e-05 0
0.0004957548 0 8.2521762e-05 0
0.00049825229 0 8.2521821e-05 0
2.4983934e-06 5.0565662e-21 0.00012504871 1.0804452e-08
2.4978958e-06 0 0.00012984676 1.0485937e-08
4.9950832e-06 0 0.00012997125 1.0887335e-08
2.4984393e-06 0 0.00013244085 9.773131e-09
2.498566e-06 7.4363634e-24 0.00013253864 9.5087862e-09
2.5016183e-06 0 0.00013502512 8.1068555e-09
2.4972642e-06 0 0.00013997579 1.4196102e-08
2.5021425e-06 0 0.00013996548 6.5707225e-09
2.4806254e-06 4.9210631e-23 0.00014247063 8.4238607e-09
2.5021432e-06 0 0.00014245636 5.4793564e-09
2.5352865e-06 -5.1949779e-24 0.00014260188 5.0568004e-09
2.503769e-06 -6.8418384e-24 0.00014743747 5.5174592e-09
1.4985159e-05 0 0.00014750426 3.2730583e-09
1.4985056e-05 0 0.00015249408 2.6030434e-09
1.4984963e-05 1.0551782e-18 0.0001525042 4.577841e-09
1.4985033e-05 0 0.00015250461 2.5406611e-09
1.4985115e-05 -4.9184906e-22 0.00015500468 2.5389209e-09
6.743265e-05 0 0.00015500091 -9.0175646e-09
1.4985167e-05 0 0.00015999331 2.501257e-09
1.4985068e-05 -4.2361062e-23 0.0001624819 1.7475764e-09
1.4985089e-05 0 0.00016498765 1.0374258e-09
7.742296e-05 0 0.00016500096 -1.1085854e-08
2.7474703e-05 0 0.00017250101 -4.0886873e-09
7.4773901e-06 0 0.00017749988 -2.7311011e-09
2.9978791e-05 0 0.00018500307 -5.8433377e-09
4.4952102e-05 0 0.00018500019 -1.0215608e-08
4.7452565e-05 0 0.00019499876 -1.2567543e-08
3.746266e-05 0 0.00019500164 -7.8152111e-09
4.9948902e-05 0 0.00019500036 -1.0154956e-08
4.9950796e-05 0 0.00019500115 -1.1671094e-08
6.2437508e-05 0 0.00019750865 -1.6520457e-08
0.00032026087 0 0.00010124944 -1.9928111e-09
0.00031932556 0 0.00010399937 -1.4160929e-09
0.00031976646 0 0.00010274572 -2.7312279e-09
0.00031849385 0 0.0001062494 -1.1496696e-09
0.00031715488 0 0.00010992453 -1.0041041e-09
0.00031761151 3.534069e-23 0.00010866648 -2.2716017e-10
0.00031667659 -3.5344982e-23 0.00011124939 -7.5908148e-10
0.00031569913 3.5346836e-23 0.00011374936 -9.4162441e-10
0.00031447399 0 0.00011696468 -6.8672635e-10
0.00031496311 0 0.00011570867 -8.3485453e-10
0.00031374134 0 0.00011874933 -9.106364e-10
0.0003127177 3.5350584e-23 0.00012124932 -9.5932491e-10
0.00031169225 0 0.00012380804 -1.0098408e-09
0.00031220944 -3.529552e-23 0.00012255298 -9.6921757e-10
0.00031063177 0 0.00012624929 -1.2129233e-09
0.00030936529 0 0.00012925989 -1.1134638e-09
0.00030990959 3.5318041e-23 0.00012800259 -1.658131e-09
0.0003084421 0 0.00013124924 -1.102115e-09
0.00030697604 0 0.00013453025 -1.1392221e-09
0.00030754756 3.5333769e-23 0.0001332714 -1.9581597e-09
0.00030614415 0 0.0001362492 -1.5619213e-09
0.00030453645 0 0.00013967065 -7.9128295e-10
0.00030513376 3.5343764e-23 0.00013841214 -2.6665947e-09
0.00030374226 0 0.00014124916 -8.9535093e-10
0.00030204411 0 0.00014469646 -8.2979035e-10
0.00030267106 2.5378217e-20 0.00014343963 -1.1189909e-09
0.00030122171 -3.536865e-23 0.00014624911 -1.0049193e-09
0.00029948895 0 0.000149603 -1.2764249e-09
0.00030014823 0 0.0001483462 -1.1276482e-09
0.00029857019 3.5373131e-23 0.00015124905 -1.7119533e-09
0.00029687056 0 0.00015440141 -1.4214667e-09
0.00029755848 3.5335245e-23 0.00015314437 -2.7121249e-09
0.00029580587 3.5377686e-23 0.000156249 -1.404589e-09
0.00029418632 0 0.00015910362 -8.5872658e-10
0.00029490529 -3.5317004e-23 0.00015784802 -1.5079735e-09
0.00029219827 0 0.00016248443 -2.1723927e-10
0.00029293769 0 0.00016123544 -6.5144448e-10
0.00029142849 -3.5383868e-23 0.00016374893 -2.7946015e-10
0.00028943765 0 0.00016705812 -9.836202e-10
0.00029020073 3.5352686e-23 0.00016580162 -6.8681518e-10
0.00030970199 0 0.00016502763 0
0.00028836232 3.5389502e-23 0.00016874886 -1.0657444e-09
0.00028659914 0 0.00017153288 -6.3266202e-10
0.000287391 0 0.00017028082 -7.3983973e-10
0.00028455181 0 0.00017474848 -4.9133108e-11
0.00028535522 3.5372163e-23 0.00017349576 -6.5308246e-10
0.00028354953 0 0.00017624878 1.3443312e-10
0.00028162456 0 0.00017912072 -7.6501922e-11
0.0002824656 -3.532403e-23 0.00017786821 6.3835557e-10
0.00027952489 0 0.00018221631 -6.8191243e-10
0.00028037809 0 0.00018096331 -6.2250073e-10
0.00027844704 3.540402e-23 0.00018374869 -1.0090548e-09
0.00027651079 0 0.00018649312 -6.0499858e-10
0.00027739436 -3.5314901e-23 0.0001852427 -1.4203153e-09
0.00027437238 0 0.0001895101 3.2992193e-11
0.00027526289 -3.536196e-23 0.00018825405 -3.7165609e-10
0.00027220588 0 0.00019247068 -6.7799248e-11
0.00027312343 3.5408686e-23 0.00019122246 4.0900804e-10
0.00027124968 -3.5414667e-23 0.00019374856 5.4409709e-10
0.00026907418 0 0.00019663509 5.5186491e-10
0.00027002041 0 0.00019538341 1.3042884e-09
0.00024975036 0 0.00019750013 -1.002789e-09
0.00026686805 0 0.00019952777 -3.3124758e-11
0.00026782488 0 0.00019827316 4.7506445e-10
3.4965006e-05 0 0.00020748549 -5.9140567e-09
7.7423442e-05 0 0.00021000128 -1.0874167e-08
6.4935104e-05 0 0.00022000214 -1.1442142e-08
6.4935147e-05 0 0.00022250164 -1.0699381e-08
0.00024865928 0 0.00022129045 7.4813754e-10
0.00024625985 0 0.00022392041 1.4201059e-10
0.00024740945 -3.5315423e-23 0.0002226718 0
0.00024383791 0 0.00022652257 8.9792445e-10
0.00024500954 0 0.00022527305 6.6513261e-10
0.00024139204 0 0.00022909684 1.3044476e-10
0.00024258778 3.5341068e-23 0.0002278471 6.4756092e-10
0.00023892069 0 0.00023164266 5.978731e-11
0.00024014187 0 0.00023039286 -2.8914336e-11
0.00023642341 0 0.00023416091 5.2055837e-10
0.0002376706 -3.5353607e-23 0.00023291101 -6.1478231e-10
0.00023389903 0 0.00023665233 9.9067702e-10
0.00023517328 0 0.00023540254 1.2377667e-09
0.00023134655 0 0.00023911761 8.7649344e-10
0.00023264885 0 0.00023786803 6.1779148e-10
0.00022876526 0 0.00024155723 1.2556415e-09
0.00023009602 0 0.00024030804 6.2262799e-10
0.00022615575 0 0.00024397246 1.8259802e-09
0.00022751475 0 0.00024272423 1.3578222e-09
0.00022226519 0 0.00024748909 8.567585e-10
0.00022352858 0 0.00024635513 1.4477223e-09
0.00022490465 3.531338e-23 0.00024511795 2.1999362e-09
0.00021959682 0 0.00024984025 2.7622128e-10
0.00022101901 0 0.00024858664 1.1930861e-09
0.00021689474 0 0.00025216875 -7.537775e-11
0.00021834758 0 0.00025091574 5.0653683e-10
0.00021416057 0 0.00025447685 -9.5712582e-10
0.00021564468 0 0.00025322473 -4.6377479e-10
0.00021139502 0 0.00025676496 -1.3623983e-09
0.00021290942 3.5396032e-23 0.00025551461 -1.6646985e-09
0.00020860445 0 0.00025903691 -1.2620682e-09
0.00021014391 3.5352444e-23 0.00025778833 -1.9399991e-09
0.0002045309 0 0.0002622934 -1.1392595e-10
0.00020604627 0 0.00026108926 -2.6985976e-10
0.00020735349 -3.5303419e-23 0.00026004911 -7.7581437e-10
0.00020166382 0 0.00026451266 -3.6207356e-10
0.00020328141 3.546359e-23 0.00026326056 -6.0914822e-10
0.00019876705 0 0.00026671485 -4.0961363e-10
0.0002004114 0 0.00026546512 -1.1659749e-09
0.00019459268 0 0.00026984457 -1.5664048e-10
0.0001960564 0 0.00026875348 5.1637403e-12
0.00019751594 0 0.00026766108 7.0362101e-10
0.00019161234 0 0.00027199987 -2.5738255e-10
0.00019334402 0 0.00027074919 5.8439222e-10
0.00018860502 0 0.00027414136 -1.0384637e-09
0.00019035934 0 0.00027289139 -5.5370983e-10
0.0001843034 0 0.00027715108 -1.9311173e-09
0.00018606654 0 0.00027592866 -2.0969367e-09
0.00018735471 0 0.00027502984 -1.5889503e-09
0.00018119319 0 0.00027924174 -1.7346837e-09
0.00018304984 0 0.00027799368 -2.1685568e-09
0.00017680403 0 0.00028216433 -1.0605909e-09
0.00017857416 0 0.00028099482 -1.9222068e-09
0.00017994298 3.5317154e-23 0.0002800825 -3.0947143e-09
0.00017358532 0 0.00028420897 -1.0202772e-09
0.00017554977 0 0.00028296312 -8.8306125e-10
0.00016907925 0 0.00028704022 -1.0905565e-09
0.00017108179 0 0.00028579667 -1.466011e-09
0.00017233817 1.7647612e-23 0.00028500677 -1.6388107e-09
0.00016450645 0 0.00028980602 -9.3933458e-10
0.00016608688 0 0.0002888376 -7.6331856e-10
0.00016782353 1.7698101e-23 0.00028779816 -5.8160734e-10
0.00016109198 0 0.00029177472 -6.4622684e-10
0.00016325464 -1.7745471e-23 0.00029053414 -1.4519258e-09
0.00015636792 0 0.00029445977 9.2550453e-11
0.00015859453 0 0.00029320826 6.3983805e-10
0.00015984194 0 0.00029250111 8.1204582e-10
0.00015155226 0 0.00029707838 3.611248e-11
0.00015359963 0 0.00029595856 5.827449e-10
0.000155114 1.7677104e-23 0.00029514769 7.7783539e-10
0.00014662909 0 0.00029963379 3.0208985e-10
0.00014860475 0 0.00029859048 5.4848666e-12
0.00015029628 1.7698866e-23 0.00029773424 1.6543565e-10
0.0002646393 0 0.00020237851 -3.8588519e-10
0.00026561904 -3.5410374e-23 0.0002011283 -1.105394e-10
0.00026354444 0 0.00020374842 -5.0561166e-10
0.00026137335 0 0.00020643678 -5.4262196e-10
0.00026238947 0 0.00020518743 -1.4269872e-09
0.00025909482 0 0.00020921854 -1.0491907e-09
0.00026012386 3.5345096e-23 0.00020796724 -1.1119946e-09
0.00025679839 0 0.00021197257 -6.7137485e-10
0.000257845 3.5375444e-23 0.00021072012 -9.1339437e-10
0.00025448187 0 0.00021469402 1.3475402e-10
0.00025554859 0 0.00021344108 0
0.00025214505 0 0.00021738281 4.0006528e-10
0.0002532327 0 0.00021613087 0
0.00025093478 0 0.00021874816 8.8013609e-10
0.00024978765 -3.5298358e-23 0.00022004192 1.5627034e-09
0.00039711467 7.0588243e-23 0.00023262747 0
0.00039461669 0 0.0002375087 0
0.00049639123 0 0.00027750089 0
0.00049825229 0 0.00027750359 0
0.0001243882 -1.7438795e-20 0.00030980004 -1.1158688e-10
0.0001187789 0 0.00031206386 8.7967606e-10
0.00012113304 0 0.0003110956 1.1464544e-09
0.00012313338 -5.5792236e-22 0.00031030745 1.6473074e-09
0.00011171657 0 0.00031475312 3.1629263e-10
0.00011364082 0 0.00031401975 5.5311639e-10
0.00011613823 0 0.00031306239 1.2164307e-09
0.00011752226 0 0.00031255462 1.896348e-09
0.00010445597 0 0.00031734916 -1.2106261e-10
0.00010614865 0 0.00031675121 5.9961256e-11
0.00010864603 0 0.00031584053 8.0921906e-10
0.00011046258 0 0.00031520779 1.751693e-09
9.6974869e-05 0 0.00031986253 8.6115585e-11
9.8656519e-05 0 0.00031930387 -3.4225476e-11
0.00010115389 0 0.00031845144 0
0.00010320493 1.7784223e-23 0.00031777371 0
8.9233098e-05 0 0.00032229441 1.0689268e-09
9.1164452e-05 0 0.00032168337 1.4490144e-09
9.36618e-05 0 0.00032089549 1.8785894e-09
9.5725765e-05 0 0.00032025968 3.2091999e-09
7.9829902e-05 0 0.00032497635 4.4969433e-10
8.1175154e-05 0 0.00032460785 3.6665898e-10
8.3672463e-05 0 0.00032389231 -3.6303671e-11
8.6169783e-05 0 0.00032318499 -4.1971764e-10
8.798419e-05 0 0.00032266994 9.1916461e-10
6.9868158e-05 0 0.0003274861 9.0765143e-11
7.1186053e-05 0 0.0003271653 2.9105125e-10
7.3683305e-05 0 0.00032652291 1.5996419e-10
7.6180574e-05 0 0.00032591053 2.252824e-10
7.8590571e-05 -8.9537638e-24 0.00032529988 8.6711353e-10
5.8791362e-05 0 0.00032976285 -1.1430704e-11
6.1197245e-05 0 0.0003292501 -3.3407237e-10
6.3694412e-05 0 0.00032874283 -8.8098574e-10
6.6191604e-05 0 0.00032827427 -8.6638985e-10
6.863886e-05 0 0.00032776139 -8.8202028e-10
4.2207436e-05 0 0.00033246311 -2.1063233e-10
4.3718143e-05 0 0.0003322315 9.3088588e-11
4.6215e-05 0 0.00033180636 2.2812121e-10
4.8711923e-05 0 0.00033140664 9.5645412e-11
5.1208902e-05 0 0.00033104247 -4.4457864e-10
5.370593e-05 0 0.00033067758 -6.2491732e-10
5.6203e-05 0 0.00033025435 5.8006403e-10
5.7534484e-05 8.8373587e-24 0.00033001842 1.0364403e-09
1.665e-06 0 0.00033473061 -7.3206427e-10
3.4128422e-06 0 0.00033496877 -4.536893e-10
6.327e-06 0 0.00033495242 -2.0417811e-10
8.8007143e-06 0 0.00033488271 4.1664137e-10
1.1285e-05 0 0.00033481476 2.4711965e-10
1.3774091e-05 0 0.00033475524 -9.3401489e-11
1.6265769e-05 0 0.00033468167 -3.1850539e-10
1.8759e-05 0 0.00033459046 -6.9259929e-10
2.1253235e-05 0 0.00033447653 -7.4021495e-10
2.3748158e-05 0 0.00033431501 -9.6787629e-10
2.6243571e-05 0 0.00033412237 -1.161257e-09
2.8739348e-05 0 0.0003339305 -1.5350084e-09
3.12354e-05 0 0.00033372023 -2.0025655e-09
3.3731667e-05 0 0.00033350018 -1.5324439e-09
3.6228103e-05 0 0.00033325302 -1.3415867e-09
3.8724677e-05 0 0.00033295544 -8.8147059e-10
4.0970451e-05 4.5195749e-24 0.00033264417 5.8117063e-10
4.5319712e-06 0 0.00033501742 -2.6043967e-11
5.0100338e-06 -5.5310687e-25 0.0003350003 1.8295151e-11
8.2425523e-05 -8.8241187e-24 0.0003375028 0
4.7456025e-05 8.8239152e-24 0.00034250898 0
0.00011239115 -1.7647093e-23 0.00035000019 0
0.00011489038 1.7647346e-23 0.00035000074 0
0.00011984843 0 0.00035000091 0
0.00012233972 0 0.00035000075 0
0.00012471252 0 0.00035000008 0
0.00011238631 0 0.00035500731 0
3.2469388e-05 -4.4118865e-24 0.00036250214 0
3.2470377e-05 -4.4120209e-24 0.00037000158 0
0.00010739305 0 0.00037249981 0
2.2482395e-05 0 0.00037499995 0
9.9906214e-06 0 0.000377506 0
1.9986013e-05 -2.2064785e-24 0.00037750028 0
7.4929782e-05 0 0.00038500395 0
3.2468317e-05 -4.4117409e-24 0.00039500334 0
4.4958079e-05 0 0.00039750013 0
6.7431835e-05 0 0.0003999992 0
6.7446414e-05 0 0.00039999491 0
0.00014158793 0 0.00030212799 6.4967014e-11
0.00014360987 0 0.00030110589 0
0.00014537204 0 0.00030025914 0
0.00013642017 0 0.00030456486 3.7377085e-10
0.000138615 0 0.00030350952 7.2239552e-11
0.00014033014 1.7705574e-23 0.0003027251 5.854536e-10
0.00012983714 0 0.00030748597 6.0783163e-10
0.00013112271 0 0.00030693837 1.0112585e-09
0.00013362014 0 0.00030580532 1.6177667e-09
0.00013516278 -1.7685369e-23 0.00030513607 2.0461508e-09
0.00012612787 0 0.00030905975 3.5604481e-10
0.00012858558 -1.6863823e-20 0.00030801484 1.6864136e-09
0.00013986677 1.7647374e-23 0.00033000336 0
0.00013487136 0 0.00033250317 0
0.00012987295 0 0.00033750622 0
0.00012497726 0 0.00035000013 0
0.00015484368 0 0.00036749851 0
0.00012488466 0 0.00039000018 0
0.00031843288 0 0.0003325019 0
0.00032093037 0 0.00033250441 0
0.00032342786 0 0.00033250485 0
0.00032592534 0 0.00033250468 0
0.00032842283 0 0.00033250457 0
0.00033092032 0 0.00033250457 0
0.00033341781 0 0.00033250459 0
0.0003359153 0 0.00033250459 0
0.00033841279 0 0.00033250458 0
0.00034091027 0 0.00033250457 0
0.00034340776 0 0.00033250456 0
0.00034590525 0 0.00033250455 0
0.00034840274 0 0.00033250455 0
0.00035090023 0 0.00033250454 0
0.00035339772 0 0.00033250453 0
0.00035589521 0 0.00033250452 0
0.0003583927 0 0.00033250452 0
0.00036089019 0 0.00033250451 0
0.00036338768 0 0.0003325045 0
0.00036588517 0 0.00033250449 0
0.00036838266 0 0.00033250448 0
0.00037088015 0 0.00033250448 0
0.00037337764 0 0.00033250446 0
0.00036729678 0 0.00036007203 0
0.00035589521 0 0.00038250046 0
0.0003583927 0 0.00038250038 0
0.00036089019 0 0.0003825002 0
0.00036338768 0 0.00038250011 0
0.00036527164 0 0.00038250013 0
0.00036939292 0 0.00038250009 0
0.00037200667 0 0.00038250016 0
0.00037223138 0 0.00038250079 0
0.00027472441 0 0.0003899992 0
0.00028470591 0 0.00038999084 0
0.0002847335 0 0.00038998149 0
0.00029220721 0 0.00038999974 0
0.00029222305 0 0.00038999599 0
0.00030219723 0 0.00038999972 0
0.00030220973 0 0.00038998964 0
0.00030969314 0 0.00038999676 0
0.00034215724 0 0.00038999974 0
0.00034464335 0 0.00038999958 0
0.00034465655 0 0.00038999805 0
0.0002747107 0 0.00039241794 0
0.00027472846 0 0.00039239388 0
0.00028470203 0 0.00039001351 0
0.00028473432 0 0.00039002299 0
0.00029220172 0 0.00039000831 0
0.00029224563 0 0.00039002727 0
0.00030219 0 0.00039001146 0
0.00030222319 0 0.00039004011 0
0.00030968631 0 0.00039001052 0
0.0003097122 3.5295569e-23 0.00039006916 0
0.00032216423 0 0.00039249139 0
0.00032218281 0 0.00039249481 0
0.00033215811 0 0.00039249062 0
0.00033220407 0 0.00039248271 0
0.00034215669 0 0.00039000515 0
0.0003446249 0 0.00039002994 0
0.00034465569 -4.9424005e-17 0.00039019111 0
0.00027471327 0 0.00039251119 0
0.00027473206 3.5293946e-23 0.00039250682 0
0.00032214835 0 0.00039253704 0
0.00032218531 0 0.00039251872 0
0.00033215778 0 0.00039250978 0
0.0003321992 0 0.00039251295 0
0.00034464914 0 0.00039250123 0
0.00034465789 3.5293335e-23 0.00039250345 0
0.00035214592 0 0.00039499775 0
0.00035459634 0 0.0003949901 0
0.00035214303 0 0.00039500523 0
0.00035460071 0 0.00039500935 0
0.00037587513 0 0.00033250446 0
0.00037837262 0 0.00033250446 0
0.00038087011 0 0.00033250445 0
0.00038336761 0 0.00033250444 0
0.0003858651 0 0.00033250443 0
0.00038836259 0 0.00033250442 0
0.00039086008 0 0.00033250441 0
0.00039335757 0 0.0003325044 0
0.00039585506 0 0.0003325044 0
0.00039835255 0 0.00033250439 0
0.00040085005 0 0.00033250438 0
0.00040334754 0 0.00033250438 0
0.00040584503 0 0.00033250437 0
0.00040834252 0 0.00033250437 0
0.00041084002 0 0.00033250437 0
0.00041333751 0 0.00033250436 0
0.000415835 0 0.00033250436 0
0.00041833249 0 0.00033250435 0
0.00042082999 0 0.00033250435 0
0.00042332748 0 0.00033250435 0
0.00042582497 0 0.00033250434 0
0.00042832246 0 0.00033250434 0
0.00043081996 0 0.00033250433 0
0.00043331745 0 0.00033250432 0
0.00043581494 0 0.00033250432 0
0.00043831244 0 0.00033250431 0
0.00044080993 0 0.00033250429 0
0.00044330742 0 0.00033250427 0
0.00044580492 0 0.00033250424 0
0.00044830241 0 0.00033250421 0
0.0004507999 0 0.00033250417 0
0.0004532974 0 0.00033250415 0
0.00045579489 0 0.00033250413 0
0.00045829238 0 0.00033250412 0
0.00046078988 0 0.00033250412 0
0.00046328737 0 0.00033250412 0
0.00046578487 0 0.00033250411 0
0.00046828236 0 0.00033250411 0
0.00047077985 0 0.00033250411 0
0.00047327735 0 0.0003325041 0
0.00047577484 0 0.0003325041 0
0.00047827234 0 0.00033250409 0
0.00048076983 0 0.00033250408 0
0.00048326733 0 0.00033250407 0
0.00048576482 0 0.00033250405 0
0.00048826231 0 0.00033250403 0
0.00049075981 0 0.00033250401 0
0.0004932573 0 0.00033250398 0
0.0004957548 0 0.0003325039 0
0.00049825229 0 0.00033250416 0
0.00048700057 0 0.00036248693 0
0.00048701936 0 0.0003624938 0
0.00049445027 0 0.00036244539 0
0.00049454131 0 0.00036246431 0
0.00048697468 0 0.00036272789 0
0.00048702247 0 0.00036255153 0
0.00049443931 0 0.00036258913 0
0.00049455122 0 0.00036255191 0
0.00044962229 0 0.00036745616 6.2401087e-11
0.00045708584 0 0.00036748441 1.0436256e-10
0.00046700786 0 0.00036747512 -7.883271e-10
0.00046712736 0 0.00036746385 -1.1062829e-10
0.00047712458 0 0.00036746175 1.6544362e-09
0.00047952177 0 0.00036749797 1.1274799e-08
0.00044954881 0 0.00036750085 2.4420026e-09
0.00044966746 0 0.00036755405 2.2194615e-10
0.00045701679 -2.9441319e-18 0.00036751121 0
0.00045717098 0 0.00036756709 0
0.000467005 0 0.00036752777 -1.5731034e-09
0.00046713573 7.0601676e-23 0.00036754544 -1.5806996e-10
0.00047714605 -7.0604354e-23 0.00036754519 1.7471367e-09
0.00047952282 -7.0586494e-23 0.00036750347 1.0491622e-08
0.00038461998 7.0586993e-23 0.00037001093 0
0.00039335757 0 0.00037000722 0
0.00039552141 7.0749499e-23 0.00037000125 0
0.00039770449 0 0.00037000021 0
0.00040002204 0 0.00037000011 0
0.00040454071 0 0.00037000006 0
0.0004071771 -7.0600743e-23 0.00037000033 0
0.00040960865 -7.0589293e-23 0.00037000016 0
0.00043200922 0 0.00037244055 0
0.00043211207 0 0.00037245312 0
0.00043202156 0 0.00037254381 0
0.00043211238 0 0.00037254415 -7.7700147e-10
0.000444527 0 0.00037497656 -7.9092733e-10
0.00044462624 0 0.00037496544 -5.0665421e-11
0.00041712019 0 0.00037748445 0
0.00044451917 0 0.00037504053 0
0.00044463678 0 0.00037506185 0
0.00040955736 0 0.00037996692 1.5666203e-09
0.00040963981 0 0.00037994394 0
0.00041706657 0 0.00037751893 0
0.00041720668 7.0607086e-23 0.00037757304 0
0.00037963298 -7.0588493e-23 0.00038001927 0
0.0004095495 0 0.00038004432 0
0.00040964801 0 0.00038007523 0
0.00037463733 -7.0588403e-23 0.00038250042 0
0.00041457114 0 0.00039000323 0
0.00041705251 0 0.00039000149 0
0.00041711236 0 0.00039000059 0
0.00048959487 7.0598314e-23 0.0003900003 0
0.00039710201 0 0.00039499944 0
0.00039713478 0 0.00039499411 0
0.00040709234 0 0.00039250621 0
0.0004070954 -7.0586581e-23 0.00039254112 0
0.00042707501 0 0.00039494987 0
0.00038211391 0 0.00039749644 0
0.00038212097 0 0.0003974967 0
0.00039710144 0 0.00039500104 0
0.00039959058 0 0.00039500039 0
0.000427073 0 0.00039500658 0
0.00038211085 0 0.00039756058 0
0.00038211937 0 0.00039994479 0
0.00038961043 -7.0586156e-23 0.00039750126 0
0.00042707405 -7.0586335e-23 0.00039750267 0
5.9940967e-05 0 0.00040249985 0
6.2436753e-05 0 0.00040250059 0
2.9969512e-05 0 0.00040500207 0
6.9932517e-05 8.8235774e-24 0.0004050129 0
7.9926623e-05 -8.823991e-24 0.00040501296 0
4.9955883e-05 0 0.00041250127 0
2.2478982e-05 4.4119208e-24 0.00041500322 0
3.9963753e-05 0 0.00041500271 0
5.7442884e-05 0 0.0004200012 0
6.9932506e-05 0 0.00042000045 0
5.7438279e-05 0 0.0004225014 0
2.9969709e-05 0 0.00042749617 0
2.9970977e-05 0 0.0004274974 0
2.9969965e-05 0 0.00042999771 0
2.997003e-05 0 0.00042999274 0
3.2467517e-05 0 0.00042999725 0
0.00012487239 -1.7646889e-23 0.00042750156 0
2.9969903e-05 0 0.00043249611 0
2.9970651e-05 4.4117258e-24 0.00043000204 0
6.9932846e-05 -8.823619e-24 0.00043000018 0
5.4947614e-05 8.8236796e-24 0.00043500683 0
1.7481937e-05 0 0.00043750631 0
1.7483107e-05 -2.2058915e-24 0.00043750375 0
1.9980231e-05 0 0.00043999404 0
2.7475287e-05 0 0.00043999983 0
2.9972029e-05 0 0.00043999653 0
0.00011988295 0 0.00043750111 0
2.746904e-05 0 0.00044000232 0
2.9968069e-05 0 0.00044000039 0
9.9900141e-05 1.7646545e-23 0.00044261012 0
9.9900031e-05 0 0.00044746717 0
9.9900041e-05 1.7646527e-23 0.00044757981 0
9.9900063e-05 1.7646531e-23 0.00045012512 0
1.7483261e-05 0 0.00045499562 0
9.9900058e-05 0 0.00045471888 0
0.00010739258 0 0.00045253769 0
9.9900042e-05 0 0.00045561673 0
9.9900065e-05 0 0.00045781236 0
1.9981106e-05 0 0.00046249646 0
5.7442829e-05 8.8233104e-24 0.0004600039 0
9.9900016e-05 0 0.00046001222 0
1.997573e-05 0 0.00046250004 0
3.2467514e-05 0 0.00046500296 0
6.7433903e-05 8.8234435e-24 0.00046500104 0
9.9900245e-05 0 0.00046502169 0
3.2467596e-05 -4.4116429e-24 0.00046750603 0
9.9900706e-05 -1.7646644e-23 0.00046751044 0
3.2467524e-05 0 0.00047249419 0
3.2467599e-05 0 0.00047749729 0
3.496622e-05 0 0.00048249818 0
7.243513e-05 0 0.00048000084 0
0.00010239756 -1.7646529e-23 0.00048502934 0
3.496591e-05 0 0.0004899986 0
8.7413457e-05 -1.7646713e-23 0.00048750065 0
4.2457921e-05 -4.4116737e-24 0.00049250236 0
6.4937768e-05 -8.8236359e-24 0.00049250642 0
2.7474481e-05 0 0.00049749922 0
0.00012237756 0 0.00049999919 0
0.00014484787 0 0.00040249259 0
0.00014486415 0 0.0004024908 0
0.00014484347 0 0.00040253553 0
0.00014486918 0 0.00040253711 0
0.0001998348 -3.4802465e-19 0.0004025275 0
0.00019230582 0 0.00041499834 0
0.00019231034 0 0.00041499736 0
0.00017979424 0 0.00041748807 0
0.00017983637 0 0.00041748399 0
0.00019229394 0 0.00041745437 0
0.00019231865 0 0.00041746669 0
0.00020479587 0 0.00041500016 0
0.00024726611 3.5294983e-23 0.00041500408 0
0.00014985102 0 0.00041750039 0
0.00017732221 0 0.00041750027 0
0.00017979214 0 0.00041751496 0
0.00017983541 0 0.00041751561 0
0.00013486382 0 0.00042000132 0
0.00023975955 0 0.00042249952 0
0.00024725231 0 0.00042249981 0
0.00024725586 0 0.00042249746 0
0.00020479471 0 0.00042499965 0
0.00023975096 0 0.00042493804 0
0.00023976362 0 0.00042498144 0
0.00024725192 0 0.00042253966 0
0.00024726732 0 0.00042254921 0
0.00020479414 0 0.00042749872 0
0.00020481213 0 0.000427491 0
0.00022975964 0 0.00042748887 0
0.00022978677 0 0.00042748485 0
0.00013985677 0 0.00042999725 0
0.00014223913 0 0.00042999101 0
0.00020479237 0 0.00042750253 0
0.00020481071 1.7647874e-22 0.00042750104 0
0.00022975983 0 0.00042751039 0
0.00022978389 0 0.00042751186 0
0.00014231352 0 0.0004300064 0
0.00012987004 0 0.00043502051 0
0.00016731022 0 0.00043747949 0
0.00016734644 0 0.00043748579 0
0.00019228981 0 0.00043748313 0
0.00019232013 0 0.00043748728 0
0.00016731449 0 0.00043751553 0
0.00016734601 0 0.00043751306 0
0.00019229219 0 0.00043751406 0
0.00019232008 0 0.00043751224 0
0.00024725219 0 0.00044005982 0
0.00024725285 0 0.00044016173 0
0.00020729215 0 0.0004449998 0
0.00020977585 0 0.00044499768 0
0.00020975456 0 0.0004450049 0
0.00015485437 0 0.0004500035 0
0.00018981275 -3.5293552e-23 0.00045000037 0
0.00020479171 0 0.00045249673 0
0.00020727494 0 0.00045249627 0
0.00020733654 0 0.00045249664 0
0.00020979845 0 0.00045249233 0
0.00021728064 0 0.00045246876 0
0.00021728693 0 0.00045004087 0
0.00021978145 -3.5293272e-23 0.00045003667 0
0.00022475475 0 0.00045000166 0
0.00022726572 0 0.00045000678 0
0.00022970479 0 0.00045000096 0
0.00022979416 -3.5296751e-23 0.00045000089 0
0.00023473223 0 0.00045000051 0
0.00023478873 0 0.0004500006 0
0.00023726761 0 0.0004500008 0
0.00024726204 3.5294402e-23 0.00045000516 0
0.00020479162 0 0.00045251307 0
0.00020728192 0 0.00045250476 0
0.00020730365 0 0.00045250463 0
0.00020979311 0 0.00045250342 0
0.00013736217 0 0.00045512287 0
0.00013736316 1.7646604e-23 0.00045537463 0
0.00024475229 0 0.00045749751 0
0.00024476493 0 0.00045749891 0
0.00024475136 0 0.00045997953 0
0.00024476726 0 0.00045992678 0
0.00024725279 0 0.00045999402 0
0.00017482248 0 0.00046249728 0
0.00017492044 0 0.00046249362 0
0.00024475258 0 0.00046000426 0
0.0001573478 -1.7647114e-23 0.00046250728 0
0.00016483374 0 0.0004625034 0
0.00016733128 0 0.000462514 0
0.00016733741 0 0.00046254578 0
0.00017481364 0 0.00046251211 0
0.00017490759 0 0.00046251531 0
0.00018984524 0 0.00046499457 0
0.00021977888 0 0.00046499872 0
0.00021978063 0 0.00046499945 0
0.00022726035 0 0.00046498693 0
0.00022728377 0 0.00046498563 0
0.00019195018 0 0.00046500257 0
0.00019230998 3.5293495e-23 0.00046500209 0
0.00020728613 0 0.00046749067 0
0.00020732998 0 0.00046747581 0
0.00021977215 0 0.00046742584 0
0.000219786 -3.5294003e-23 0.00046504283 0
0.00022725987 0 0.00046501472 0
0.00022728301 3.5294671e-23 0.00046501975 0
0.00023476209 0 0.00046749538 0
0.00023709387 0 0.00046749648 0
0.00012988017 0 0.00046750748 0
0.00016233721 0 0.00046999976 0
0.00020728657 0 0.00046750535 0
0.00020730914 -3.5295873e-23 0.00046750616 0
0.00021977308 0 0.00046750604 0
0.00021978315 3.859337e-22 0.00046750246 0
0.00023475754 -1.2780887e-18 0.00046750891 0
0.00023671492 0 0.00046750117 0
0.00016232547 0 0.00047246923 0
0.00016236044 0 0.00047246189 0
0.00017230929 0 0.00047248118 0
0.00017235439 0 0.00047247618 0
0.00018231666 0 0.00047249912 0
0.00018475848 0 0.00047248355 0
0.00019230726 0 0.00047249974 0
0.00019476435 0 0.00047249161 0
0.0002272741 0 0.00047249728 0
0.00016232762 -1.6184859e-18 0.00047250954 0
0.00016235196 0 0.00047251322 0
0.00017230762 0 0.00047252084 0
0.00017235447 1.7649281e-23 0.00047252425 0
0.00018231297 0 0.00047250484 0