# interfaceEnergyFluxGas  FACE_DATA 134
# x  y  z  interfaceEnergyFluxGas
6.9440971e-05 8.8246554e-24 1.2499341e-06 -4.3002417e-10
6.9414068e-05 0 3.7497339e-06 -3.4283303e-10
6.9249133e-05 0 6.2493542e-06 -2.1941018e-10
6.8978852e-05 0 8.7490208e-06 -3.5701491e-10
6.8607163e-05 0 1.1248736e-05 -5.7715358e-10
6.8145971e-05 0 1.3748426e-05 -7.0252142e-10
6.7365779e-05 0 1.7223501e-05 -1.0093533e-09
6.7663702e-05 -8.8533741e-24 1.5972628e-05 -9.3381425e-10
6.6953196e-05 0 1.8747838e-05 -1.312358e-09
6.6195894e-05 -8.87859e-24 2.1247387e-05 -1.9231827e-09
6.4896354e-05 0 2.4897101e-05 -1.6646458e-09
6.5358014e-05 -8.8802444e-24 2.3640951e-05 -3.095531e-09
6.434924e-05 0 2.6246673e-05 -1.8058889e-09
6.3250728e-05 8.9038143e-24 2.8746196e-05 -2.112439e-09
6.1925165e-05 0 3.1493132e-05 -1.139696e-09
6.2560133e-05 8.8405444e-24 3.0244912e-05 -2.3959743e-09
6.0707228e-05 -8.9243657e-24 3.3745225e-05 -1.2198568e-09
5.9205407e-05 0 3.6309542e-05 -4.7490989e-11
5.9977056e-05 8.8287101e-24 3.506147e-05 -1.5797204e-09
5.7110567e-05 0 3.9519675e-05 1.1273797e-09
5.7954069e-05 -8.9009183e-24 3.8263327e-05 1.2865476e-09
5.4933782e-05 0 4.2485386e-05 9.3421823e-10
5.586173e-05 -8.9672849e-24 4.1228247e-05 1.6434243e-09
5.3906527e-05 -8.9907082e-24 4.3742092e-05 5.5865742e-10
5.1546325e-05 0 4.6494029e-05 4.8813982e-10
5.2662716e-05 0 4.5246509e-05 0
4.906726e-05 7.6339546e-22 4.9105398e-05 1.2547635e-09
5.0291366e-05 0 4.7856759e-05 1.3039654e-09
4.6461532e-05 0 5.1586841e-05 1.0661765e-09
4.7810998e-05 -8.8892554e-24 5.0340585e-05 1.9281977e-09
4.2444998e-05 0 5.4990375e-05 1.0333214e-09
4.3718143e-05 0 5.3946236e-05 1.2610689e-09
4.5203181e-05 0 5.2715467e-05 1.3642148e-09
3.9483996e-05 0 5.7166849e-05 8.1498007e-10
4.1207521e-05 0 5.5904325e-05 7.6481875e-10
3.6290519e-05 0 5.9254281e-05 4.2920981e-10
3.8232953e-05 0 5.8007451e-05 1.1144167e-09
3.1476215e-05 0 6.1979592e-05 7.9414424e-10
3.3731667e-05 0 6.075601e-05 6.1121269e-10
3.5026153e-05 -4.4193278e-24 6.0036729e-05 8.0931971e-10
2.487276e-05 0 6.4961279e-05 1.235247e-09
2.6243571e-05 0 6.4404883e-05 1.3923061e-09
2.8739348e-05 0 6.3304575e-05 1.8382992e-09
3.0216678e-05 0 6.2622418e-05 2.2342964e-09
1.7217499e-05 0 6.7434462e-05 7.0454453e-10
1.8759e-05 0 6.7015553e-05 3.8737863e-10
2.1253235e-05 0 6.6255638e-05 5.4853117e-10
2.3644302e-05 0 6.5415344e-05 1.2877359e-09
1.665e-06 0 6.9425813e-05 8.9448857e-10
3.885e-06 0 6.9510148e-05 1.4888172e-09
6.327e-06 0 6.9362106e-05 1.279238e-09
8.8007143e-06 0 6.9084732e-05 1.886016e-09
1.1285e-05 0 6.8697322e-05 1.6099287e-09
1.3774091e-05 0 6.8220546e-05 9.8955255e-10
1.5993013e-05 -2.3847551e-22 6.7730377e-05 2.2434512e-10
2.5378679e-06 2.8008999e-25 8.2508327e-05 0
2.4978342e-06 -1.6545826e-24 8.503255e-05 0
2.4989023e-06 0 8.9953874e-05 0
2.6706477e-06 0 9.4925891e-05 0
2.7623509e-06 1.6125704e-23 9.5030043e-05 0
2.5840926e-06 0 0.00010460853 0
2.5015185e-06 -2.463585e-24 0.00010726707 0
2.4997485e-06 2.7597481e-25 0.00011008735 0
2.5263864e-06 -3.6389625e-24 0.00011375046 0
2.4991456e-06 1.1036336e-24 0.00011517145 0
2.4976469e-06 2.7574308e-25 0.00011761315 0
2.4994861e-06 0 0.0001224463 0
2.5414105e-06 4.1219145e-24 0.00012324812 0
2.5084189e-06 -1.1461229e-24 0.00012502301 0
2.5008344e-06 0 0.00012996404 0
2.5392149e-06 2.7782015e-24 0.00013247065 0
2.7985273e-06 1.3405991e-23 0.00013259593 0
2.5945599e-06 0 0.00014246372 -1.7824044e-10
2.8371185e-06 9.0726464e-24 0.00014257566 0
2.6446408e-06 2.8787273e-23 0.00015245667 0
2.8423603e-06 -1.5058622e-23 0.00015256682 -4.1435485e-10
2.6783936e-06 -5.8436507e-24 0.00016245144 -1.0366448e-09
2.7698915e-06 3.3278605e-23 0.00016257485 -9.9610168e-10
2.5346153e-06 0 0.00016997939 -4.4762172e-11
2.6731571e-06 0 0.00017246474 -8.6616156e-10
2.8401569e-06 -9.6366568e-24 0.00017257067 -1.1755639e-09
2.5547566e-06 -5.250487e-23 0.0001750305 -7.5455467e-11
2.5000659e-06 0 0.00017756832 0
2.563672e-06 3.7447835e-23 0.00018245072 0
2.6787201e-06 2.198179e-23 0.00018491957 -7.6738666e-11
2.7867794e-06 1.4586216e-23 0.00018504466 -4.4221487e-10
2.5449078e-06 -6.2335296e-23 0.00018752523 -2.4069517e-11
2.5049861e-06 5.5395097e-23 0.00019247796 0
2.5552026e-06 -2.373414e-24 0.00019489709 0
2.5423763e-06 0 0.00019708755 0
2.5591171e-06 2.8231447e-25 0.00019759744 0
2.5392565e-06 0 0.00020003512 0
2.5452948e-06 -5.7124667e-24 0.0002049865 -1.3076108e-08
2.6145732e-06 -8.5720338e-24 0.00020744477 -4.9225415e-09
2.6260772e-06 -2.1776004e-23 0.00020761739 0
2.5544706e-06 3.8729431e-24 0.00021009841 0
2.5324865e-06 0 0.00021255931 0
2.5677251e-06 5.8570065e-23 0.0002174831 -8.9414225e-09
2.6517476e-06 0 0.00021995606 -8.6952585e-09
2.6213122e-06 1.7408621e-23 0.00022009817 0
2.5503334e-06 0 0.00022259779 0
2.521015e-06 0 0.00022504149 0
2.600211e-06 0 0.00022995447 -9.0481358e-09
2.6356102e-06 2.8626684e-23 0.00023243187 -7.418831e-09
2.5991616e-06 1.4318981e-24 0.00023255438 -4.7824555e-09
2.6169491e-06 3.0923205e-23 0.00023503953 -1.9214521e-08
2.5492345e-06 0 0.00023997179 -5.9807901e-08
2.5617747e-06 0 0.00024242135 0
2.5588068e-06 -1.1029695e-23 0.00024263484 0
2.5383828e-06 9.0277084e-24 0.00024511797 0
2.5369595e-06 0 0.00024761347 0
2.5541685e-06 0 0.00025245824 0
2.5605929e-06 0 0.00025492508 0
2.5544228e-06 1.3415438e-23 0.00025511453 0
2.5268366e-06 -3.3955877e-24 0.00025765135 0
2.5363954e-06 -2.7993404e-25 0.00026010354 0
2.5424754e-06 0 0.00026492699 0
2.5600174e-06 2.7974859e-23 0.00026743492 0
2.5378551e-06 0 0.00026762191 0
2.5480064e-06 2.3229872e-23 0.00027007614 0
2.5088706e-06 0 0.00027468353 0
2.5384088e-06 0 0.00027741443 0
2.5073975e-06 0 0.0002796175 0
2.5088291e-06 1.6618207e-24 0.00028030391 0
2.5001331e-06 0 0.00028375034 0
2.5007219e-06 0 0.00028655339 0
2.4998644e-06 3.6775771e-24 0.00028875004 0
2.4997131e-06 -1.1035094e-24 0.00029124977 0
2.5003207e-06 7.3831743e-24 0.00029326535 0
2.5007985e-06 -2.7609039e-25 0.0002955407 0
2.5044805e-06 0 0.00029983164 0
2.5006851e-06 -4.155386e-24 0.00030222366 0
2.5154514e-06 -5.1819277e-24 0.00030253008 0
2.5227778e-06 1.3553315e-22 0.00030500969 0
