# interfaceEnergyFluxLiquid  FACE_DATA 134
# x  y  z  interfaceEnergyFluxLiquid
6.9440971e-05 8.8246554e-24 1.2499341e-06 82169.991
6.9414068e-05 0 3.7497339e-06 83648.308
6.9249133e-05 0 6.2493542e-06 80297.408
6.8978852e-05 0 8.7490208e-06 75306.991
6.8607163e-05 0 1.1248736e-05 70678.116
6.8145971e-05 0 1.3748426e-05 68939.88
6.7365779e-05 0 1.7223501e-05 100280.3
6.7663702e-05 -8.8533741e-24 1.5972628e-05 68702.9
6.6953196e-05 0 1.8747838e-05 82872.574
6.6195894e-05 -8.87859e-24 2.1247387e-05 71445.007
6.4896354e-05 0 2.4897101e-05 96130.78
6.5358014e-05 -8.8802444e-24 2.3640951e-05 68569.509
6.434924e-05 0 2.6246673e-05 79865.966
6.3250728e-05 8.9038143e-24 2.8746196e-05 69408.198
6.1925165e-05 0 3.1493132e-05 82904.903
6.2560133e-05 8.8405444e-24 3.0244912e-05 66602.423
6.0707228e-05 -8.9243657e-24 3.3745225e-05 69451.685
5.9205407e-05 0 3.6309542e-05 77468.103
5.9977056e-05 8.8287101e-24 3.506147e-05 65837.272
5.7110567e-05 0 3.9519675e-05 83052.61
5.7954069e-05 -8.9009183e-24 3.8263327e-05 67734.578
5.4933782e-05 0 4.2485386e-05 96136.963
5.586173e-05 -8.9672849e-24 4.1228247e-05 70508.558
5.3906527e-05 -8.9907082e-24 4.3742092e-05 74547.691
5.1546325e-05 0 4.6494029e-05 76687.837
5.2662716e-05 0 4.5246509e-05 66465.183
4.906726e-05 7.6339546e-22 4.9105398e-05 77181.726
5.0291366e-05 0 4.7856759e-05 66955.903
4.6461532e-05 0 5.1586841e-05 76777.137
4.7810998e-05 -8.8892554e-24 5.0340585e-05 67229.165
4.2444998e-05 0 5.4990375e-05 95899.495
4.3718143e-05 0 5.3946236e-05 74736.517
4.5203181e-05 0 5.2715467e-05 67245.775
3.9483996e-05 0 5.7166849e-05 82977.381
4.1207521e-05 0 5.5904325e-05 70778.683
3.6290519e-05 0 5.9254281e-05 77980.942
3.8232953e-05 0 5.8007451e-05 69683.884
3.1476215e-05 0 6.1979592e-05 82467.499
3.3731667e-05 0 6.075601e-05 70685.375
3.5026153e-05 -4.4193278e-24 6.0036729e-05 67820.2
2.487276e-05 0 6.4961279e-05 94816.387
2.6243571e-05 0 6.4404883e-05 79267.89
2.8739348e-05 0 6.3304575e-05 70981.621
3.0216678e-05 0 6.2622418e-05 69460.995
1.7217499e-05 0 6.7434462e-05 95815.848
1.8759e-05 0 6.7015553e-05 80985.805
2.1253235e-05 0 6.6255638e-05 71248.423
2.3644302e-05 0 6.5415344e-05 74199.979
1.665e-06 0 6.9425813e-05 63093.53
3.885e-06 0 6.9510148e-05 70473.222
6.327e-06 0 6.9362106e-05 71664.059
8.8007143e-06 0 6.9084732e-05 70139.161
1.1285e-05 0 6.8697322e-05 68077.523
1.3774091e-05 0 6.8220546e-05 79347.989
1.5993013e-05 -2.3847551e-22 6.7730377e-05 76016.3
2.5378679e-06 2.8008999e-25 8.2508327e-05 190344.87
2.4978342e-06 -1.6545826e-24 8.503255e-05 198427.62
2.4989023e-06 0 8.9953874e-05 200868.5
2.6706477e-06 0 9.4925891e-05 189172.53
2.7623509e-06 1.6125704e-23 9.5030043e-05 195269.71
2.5840926e-06 0 0.00010460853 203135.13
2.5015185e-06 -2.463585e-24 0.00010726707 199583.43
2.4997485e-06 2.7597481e-25 0.00011008735 198046.14
2.5263864e-06 -3.6389625e-24 0.00011375046 225457.09
2.4991456e-06 1.1036336e-24 0.00011517145 198776.81
2.4976469e-06 2.7574308e-25 0.00011761315 199924.45
2.4994861e-06 0 0.0001224463 198425.21
2.5414105e-06 4.1219145e-24 0.00012324812 216905.54
2.5084189e-06 -1.1461229e-24 0.00012502301 181838.14
2.5008344e-06 0 0.00012996404 196735.86
2.5392149e-06 2.7782015e-24 0.00013247065 177758.42
2.7985273e-06 1.3405991e-23 0.00013259593 194928.49
2.5945599e-06 0 0.00014246372 185428.6
2.8371185e-06 9.0726464e-24 0.00014257566 196918.84
2.6446408e-06 2.8787273e-23 0.00015245667 189206.19
2.8423603e-06 -1.5058622e-23 0.00015256682 197460.39
2.6783936e-06 -5.8436507e-24 0.00016245144 191084.57
2.7698915e-06 3.3278605e-23 0.00016257485 194624.68
2.5346153e-06 0 0.00016997939 178985.09
2.6731571e-06 0 0.00017246474 193176.36
2.8401569e-06 -9.6366568e-24 0.00017257067 198669.77
2.5547566e-06 -5.250487e-23 0.0001750305 182111.23
2.5000659e-06 0 0.00017756832 200774.87
2.563672e-06 3.7447835e-23 0.00018245072 181953.31
2.6787201e-06 2.198179e-23 0.00018491957 190157.48
2.7867794e-06 1.4586216e-23 0.00018504466 199408.59
2.5449078e-06 -6.2335296e-23 0.00018752523 183644.76
2.5049861e-06 5.5395097e-23 0.00019247796 189811.99
2.5552026e-06 -2.373414e-24 0.00019489709 188364.77
2.5423763e-06 0 0.00019708755 209076.94
2.5591171e-06 2.8231447e-25 0.00019759744 187841.9
2.5392565e-06 0 0.00020003512 182684.02
2.5452948e-06 -5.7124667e-24 0.0002049865 193016.4
2.6145732e-06 -8.5720338e-24 0.00020744477 190477.55
2.6260772e-06 -2.1776004e-23 0.00020761739 192133.73
2.5544706e-06 3.8729431e-24 0.00021009841 189840.66
2.5324865e-06 0 0.00021255931 187170.68
2.5677251e-06 5.8570065e-23 0.0002174831 196679.02
2.6517476e-06 0 0.00021995606 197415.7
2.6213122e-06 1.7408621e-23 0.00022009817 192055.85
2.5503334e-06 0 0.00022259779 191241.32
2.521015e-06 0 0.00022504149 187698.69
2.600211e-06 0 0.00022995447 193466.51
2.6356102e-06 2.8626684e-23 0.00023243187 194212.34
2.5991616e-06 1.4318981e-24 0.00023255438 191753.29
2.6169491e-06 3.0923205e-23 0.00023503953 198061.14
2.5492345e-06 0 0.00023997179 188745.01
2.5617747e-06 0 0.00024242135 191047.82
2.5588068e-06 -1.1029695e-23 0.00024263484 197866.69
2.5383828e-06 9.0277084e-24 0.00024511797 199126.39
2.5369595e-06 0 0.00024761347 199116.29
2.5541685e-06 0 0.00025245824 189465.62
2.5605929e-06 0 0.00025492508 191866.28
2.5544228e-06 1.3415438e-23 0.00025511453 197090.75
2.5268366e-06 -3.3955877e-24 0.00025765135 205774.6
2.5363954e-06 -2.7993404e-25 0.00026010354 199382.11
2.5424754e-06 0 0.00026492699 192651.69
2.5600174e-06 2.7974859e-23 0.00026743492 192605.65
2.5378551e-06 0 0.00026762191 202468.09
2.5480064e-06 2.3229872e-23 0.00027007614 193811.16
2.5088706e-06 0 0.00027468353 215045.34
2.5384088e-06 0 0.00027741443 197946.33
2.5073975e-06 0 0.0002796175 217704.38
2.5088291e-06 1.6618207e-24 0.00028030391 216179.86
2.5001331e-06 0 0.00028375034 242901.64
2.5007219e-06 0 0.00028655339 239292.16
2.4998644e-06 3.6775771e-24 0.00028875004 245153.9
2.4997131e-06 -1.1035094e-24 0.00029124977 247271.79
2.5003207e-06 7.3831743e-24 0.00029326535 239928.53
2.5007985e-06 -2.7609039e-25 0.0002955407 235405.21
2.5044805e-06 0 0.00029983164 231634.32
2.5006851e-06 -4.155386e-24 0.00030222366 236765.18
2.5154514e-06 -5.1819277e-24 0.00030253008 214391.25
2.5227778e-06 1.3553315e-22 0.00030500969 227276.42
